 +-------------------------------------------------+
 |                                                 |
 |      CCC   AA    SSS  TTTTT  EEEEE  PPPP        |
 |     C     A  A  S       T    E      P   P       |
 |     C     AAAA   SS     T    EEE    PPPP        |
 |     C     A  A     S    T    E      P           |
 |      CCC  A  A  SSS     T    EEEEE  P           |
 |                                                 |
 +-------------------------------------------------+
 |                                                 |
 | Welcome to Academic Release CASTEP version 22.11|
 | Ab Initio Total Energy Program                  |
 |                                                 |
 | Authors:                                        |
 | M. Segall, M. Probert, C. Pickard, P. Hasnip,   |
 | S. Clark, K. Refson, J. R. Yates, M. Payne      |
 |                                                 |
 | Contributors:                                   |
 | P. Lindan, P. Haynes, J. White, V. Milman,      |
 | N. Govind, M. Gibson, P. Tulip, V. Cocula,      |
 | B. Montanari, D. Quigley, M. Glover,            |
 | L. Bernasconi, A. Perlov, M. Plummer,           |
 | E. McNellis, J. Meyer, J. Gale, D. Jochym       |
 | J. Aarons, B. Walker, R. Gillen, D. Jones       |
 | T. Green, I. J. Bush, C. J. Armstrong,          |
 | E. J. Higgins, E. L. Brown, M. S. McFly,        |
 | J. Wilkins, B-C. Shih, P. J. P. Byrne,          |
 | R. J. Maurer, J. C. Womack, J. Dziedzic,        |
 | A. Bartok-Partay, L. LeBlanc, T. K. Stenczel,   |
 | J. Kermode, S. Sturniolo, B. Shi, B. Durham     |
 | M. Evans, M. J. Smith                           |
 |                                                 |
 | Copyright (c) 2000 - 2021                       |
 |                                                 |
 |     Distributed under license from Cambridge    |
 |     Enterprise for academic use only.           |
 |                                                 |
 | Please cite                                     |
 |                                                 |
 |     "First principles methods using CASTEP"     |
 |                                                 |
 |         Zeitschrift fuer Kristallographie       |
 |           220(5-6) pp. 567-570 (2005)           |
 |                                                 |
 | S. J. Clark, M. D. Segall, C. J. Pickard,       |
 | P. J. Hasnip, M. J. Probert, K. Refson,         |
 | M. C. Payne                                     |
 |                                                 |
 |       in all publications arising from          |
 |              your use of CASTEP                 |
 |                                                 |
 +-------------------------------------------------+
 |                                                 |
 |              http://www.castep.org              |
 |                                                 |
 +-------------------------------------------------+



 Compiled for linux_x86_64_gfortran10 on Tue, 24 Oct 2023 15:07:27 -0400
 from code version b807d1bba+  Castep221_branch  Wed Sep 14 11:18:35 2022 +0100
 Compiler: GNU Fortran 11.4.0; Optimisation: coverage
 MATHLIBS: openblas (LAPACK version 3.10.0)
 FFT Lib : fftw3 version fftw-3.3.8-sse2-avx
 Fundamental constants values: CODATA 2014

 Run started: Sat, 02 Dec 2023 19:46:11 -0500

 Atomic calculation performed for H: 1s1

 Converged in 41 iterations to an ae energy of -12.242 eV

   ============================================================                
   | Pseudopotential Report - Date of generation  2-12-2023   |                
   ------------------------------------------------------------                
   | Element: H Ionic charge:  1.00 Level of theory: PBESOL   |                
   | Atomic Solver: Koelling-Harmon                           |                
   |                                                          |                
   |               Reference Electronic Structure             |                
   |         Orbital         Occupation         Energy        |                
   |            1s              1.000           -0.233        |                
   |                                                          |                
   |                 Pseudopotential Definition               |                
   |        Beta     l      e      Rc     scheme   norm       |                
   |          1      0   -0.233   0.599     qc      0         |                
   |          2      0    0.250   0.599     qc      0         |                
   |         loc     1    0.000   0.599     pn      0         |                
   |                                                          |                
   | Augmentation charge Rinner = 0.421                       |                
   | No partial core correction                               |                
   ------------------------------------------------------------                
   | "1|0.6|13|15|17|10(qc=8)"                                |                
   ------------------------------------------------------------                
   |      Author: Chris J. Pickard, Cambridge University      |                
   ============================================================                

 Atomic calculation performed for B: 1s2 2s2 2p1

 Converged in 48 iterations to an ae energy of -665.855 eV

   ============================================================                
   | Pseudopotential Report - Date of generation  2-12-2023   |                
   ------------------------------------------------------------                
   | Element: B Ionic charge:  3.00 Level of theory: PBESOL   |                
   | Atomic Solver: Koelling-Harmon                           |                
   |                                                          |                
   |               Reference Electronic Structure             |                
   |         Orbital         Occupation         Energy        |                
   |            2s              2.000           -0.344        |                
   |            2p              1.000           -0.131        |                
   |                                                          |                
   |                 Pseudopotential Definition               |                
   |        Beta     l      e      Rc     scheme   norm       |                
   |          1      0   -0.344   1.199     qc      0         |                
   |          2      0    0.250   1.199     qc      0         |                
   |          3      1   -0.131   1.199     qc      0         |                
   |          4      1    0.250   1.199     qc      0         |                
   |         loc     2    0.000   1.199     pn      0         |                
   |                                                          |                
   | Augmentation charge Rinner = 0.838                       |                
   | Partial core correction Rc = 0.838                       |                
   ------------------------------------------------------------                
   | "2|1.2|12|14|16|20:21(qc=8)"                             |                
   ------------------------------------------------------------                
   |      Author: Chris J. Pickard, Cambridge University      |                
   ============================================================                

 Atomic calculation performed for C: 1s2 2s2 2p2

 Converged in 55 iterations to an ae energy of -1022.967 eV

   ============================================================                
   | Pseudopotential Report - Date of generation  2-12-2023   |                
   ------------------------------------------------------------                
   | Element: C Ionic charge:  4.00 Level of theory: PBESOL   |                
   | Atomic Solver: Koelling-Harmon                           |                
   |                                                          |                
   |               Reference Electronic Structure             |                
   |         Orbital         Occupation         Energy        |                
   |            2s              2.000           -0.502        |                
   |            2p              2.000           -0.192        |                
   |                                                          |                
   |                 Pseudopotential Definition               |                
   |        Beta     l      e      Rc     scheme   norm       |                
   |          1      0   -0.502   1.395     qc      0         |                
   |          2      0    0.250   1.395     qc      0         |                
   |          3      1   -0.192   1.395     qc      0         |                
   |          4      1    0.250   1.395     qc      0         |                
   |         loc     2    0.000   1.395     pn      0         |                
   |                                                          |                
   | Augmentation charge Rinner = 0.983                       |                
   | Partial core correction Rc = 0.983                       |                
   ------------------------------------------------------------                
   | "2|1.4|10|12|13|20:21(qc=7)"                             |                
   ------------------------------------------------------------                
   |      Author: Chris J. Pickard, Cambridge University      |                
   ============================================================                

 Atomic calculation performed for N: 1s2 2s2 2p3

 Converged in 60 iterations to an ae energy of -1475.991 eV

   ============================================================                
   | Pseudopotential Report - Date of generation  2-12-2023   |                
   ------------------------------------------------------------                
   | Element: N Ionic charge:  5.00 Level of theory: PBESOL   |                
   | Atomic Solver: Koelling-Harmon                           |                
   |                                                          |                
   |               Reference Electronic Structure             |                
   |         Orbital         Occupation         Energy        |                
   |            2s              2.000           -0.678        |                
   |            2p              3.000           -0.259        |                
   |                                                          |                
   |                 Pseudopotential Definition               |                
   |        Beta     l      e      Rc     scheme   norm       |                
   |          1      0   -0.678   1.100     qc      0         |                
   |          2      0    0.250   1.100     qc      0         |                
   |          3      1   -0.259   1.100     qc      0         |                
   |          4      1    0.250   1.100     qc      0         |                
   |         loc     2    0.000   1.100     pn      0         |                
   |                                                          |                
   | Augmentation charge Rinner = 0.769                       |                
   | Partial core correction Rc = 0.769                       |                
   ------------------------------------------------------------                
   | "2|1.1|14|16|18|20:21(qc=7)"                             |                
   ------------------------------------------------------------                
   |      Author: Chris J. Pickard, Cambridge University      |                
   ============================================================                

 Atomic calculation performed for O: 1s2 2s2 2p4

 Converged in 57 iterations to an ae energy of -2034.019 eV

   ============================================================                
   | Pseudopotential Report - Date of generation  2-12-2023   |                
   ------------------------------------------------------------                
   | Element: O Ionic charge:  6.00 Level of theory: PBESOL   |                
   | Atomic Solver: Koelling-Harmon                           |                
   |                                                          |                
   |               Reference Electronic Structure             |                
   |         Orbital         Occupation         Energy        |                
   |            2s              2.000           -0.875        |                
   |            2p              4.000           -0.330        |                
   |                                                          |                
   |                 Pseudopotential Definition               |                
   |        Beta     l      e      Rc     scheme   norm       |                
   |          1      0   -0.875   1.100     qc      0         |                
   |          2      0    0.250   1.100     qc      0         |                
   |          3      1   -0.330   1.100     qc      0         |                
   |          4      1    0.250   1.100     qc      0         |                
   |         loc     2    0.000   1.100     pn      0         |                
   |                                                          |                
   | Augmentation charge Rinner = 0.769                       |                
   | Partial core correction Rc = 0.769                       |                
   ------------------------------------------------------------                
   | "2|1.1|17|20|23|20:21(qc=8)"                             |                
   ------------------------------------------------------------                
   |      Author: Chris J. Pickard, Cambridge University      |                
   ============================================================                

 Pseudo atomic calculation performed for H 1s1

 Converged in 14 iterations to a total energy of -12.2361 eV

 Pseudo atomic calculation performed for B 2s2 2p1

 Converged in 15 iterations to a total energy of -82.9358 eV

 Pseudo atomic calculation performed for C 2s2 2p2

 Converged in 17 iterations to a total energy of -147.8638 eV

 Pseudo atomic calculation performed for N 2s2 2p3

 Converged in 20 iterations to a total energy of -267.1659 eV

 Pseudo atomic calculation performed for O 2s2 2p4

 Converged in 14 iterations to a total energy of -430.8367 eV
 Calculation parallelised over 8 processes.
 Data is distributed by k-point(8-way)

 ************************************ Title ************************************
 

 ***************************** General Parameters ******************************
  
 output verbosity                               : normal  (1)
 write checkpoint data to                       : +_8-HQ-ipc2-B_opt.check
 type of calculation                            : geometry optimization
 stress calculation                             : on
 density difference calculation                 : off
 electron localisation func (ELF) calculation   : off
 Hirshfeld analysis                             : off
 polarisation (Berry phase) analysis            : off
 molecular orbital projected DOS                : off
 deltaSCF calculation                           : off
 unlimited duration calculation
 timing information                             : on
 memory usage estimate                          : on
 write extra output files                       : on
 write final potential to formatted file        : off
 write final density to formatted file          : on
 write structure in CELL formatted file         : on
 write BibTeX reference list                    : on
 write OTFG pseudopotential files               : on
 write electrostatic potential file             : on
 write bands file                               : on
 checkpoint writing                             : both castep_bin and check files
  
 output         length unit                     : A
 output           mass unit                     : amu
 output           time unit                     : ps
 output         charge unit                     : e
 output           spin unit                     : hbar/2
 output         energy unit                     : eV
 output          force unit                     : eV/A
 output       velocity unit                     : A/ps
 output       pressure unit                     : GPa
 output     inv_length unit                     : 1/A
 output      frequency unit                     : cm-1
 output force constant unit                     : eV/A**2
 output         volume unit                     : A**3
 output   IR intensity unit                     : (D/A)**2/amu
 output         dipole unit                     : D
 output         efield unit                     : eV/A/e
 output        entropy unit                     : J/mol/K
 output    efield chi2 unit                     : pm/V
  
 wavefunctions paging                           : none
 random number generator seed                   : randomised (194611874)
 data distribution                              : optimal for this architecture
 optimization strategy                          : maximize speed(+++)

 *********************** Exchange-Correlation Parameters ***********************
  
 using functional                               : PBE for solids (2008)
 relativistic treatment                         : Koelling-Harmon
 DFT+D: Semi-empirical dispersion correction    : off

 ************************* Pseudopotential Parameters **************************
  
 pseudopotential representation                 : reciprocal space
 <beta|phi> representation                      : reciprocal space
 spin-orbit coupling                            : off

 **************************** Basis Set Parameters *****************************
  
 basis set accuracy                             : FINE
 plane wave basis set cut-off                   :   625.8619   eV
 size of standard grid                          :     1.7500
 size of   fine   gmax                          :    22.4293   1/A
 finite basis set correction                    : automatic
 number of sample energies                      :          3
           sample  spacing                      :     5.0000   eV

 **************************** Electronic Parameters ****************************
  
 number of  electrons                           :  680.0    
 net charge of system                           :  0.000    
 treating system as non-spin-polarized
 number of bands                                :        340

 ********************* Electronic Minimization Parameters **********************
  
 Method: Treating system as non-metallic,
         and number of  SD  steps               :          1
         and number of  CG  steps               :          4
  
 total energy / atom convergence tol.           : 0.1000E-04   eV
 max force / atom convergence tol.              : ignored
 convergence tolerance window                   :          3   cycles
 max. number of SCF cycles                      :        100
 periodic dipole correction                     : NONE

 *********************** Population Analysis Parameters ************************
  
 Population analysis with cutoff                :  3.000       A
 Population analysis output                     : summary and pdos components

 ********************** Geometry Optimization Parameters ***********************
  
 optimization method                            : LBFGS
 max. no. of LBFGS updates                      : unbounded
 variable cell method                           : fixed basis quality
 max. number of steps                           :        100
 estimated bulk modulus                         :  500.0       GPa
 estimated <frequency>                          :  1668.       cm-1
 geom line minimiser                            : on
 with line minimiser tolerance                  :     0.4000
 total energy convergence tolerance             : 0.2000E-04   eV/atom
        max ionic |force| tolerance             : 0.5000E-01   eV/A
 max ionic |displacement| tolerance             : 0.1000E-02   A
   max |stress component| tolerance             : 0.1000       GPa
 convergence tolerance window                   :          2   steps
 backup results every                           : 2147483647   steps
 write geom trajectory file                     : on

 *******************************************************************************
  

                           -------------------------------
                                      Unit Cell
                           -------------------------------
        Real Lattice(A)                      Reciprocal Lattice(1/A)
    20.3330000     0.0000000     0.0000000        0.309014179   0.000000000   0.111471325
     0.0000000    10.9550000     0.0000000        0.000000000   0.573544985   0.000000000
    -4.2585793     0.0000000    11.8053802        0.000000000   0.000000000   0.532230659

                       Lattice parameters(A)       Cell Angles
                    a =     20.333000          alpha =   90.000000
                    b =     10.955000          beta  =  109.836000
                    c =     12.550000          gamma =   90.000000

                       Current cell volume =          2629.625015       A**3
                                   density =             0.653241   AMU/A**3
                                           =             1.084733     g/cm^3

                           -------------------------------
                                     Cell Contents
                           -------------------------------
                         Total number of ions in cell =  288
                      Total number of species in cell =    5
                        Max number of any one species =  160

            xxxxxxxxxxxxxxxxxxxxxxxxxxxxxxxxxxxxxxxxxxxxxxxxxxxxxxxxxxxx
            x  Element    Atom        Fractional coordinates of atoms  x
            x            Number           u          v          w      x
            x----------------------------------------------------------x
            x  H            1         0.265730   0.315911   0.103820   x 
            x  H            2         0.734270   0.315911   0.896180   x 
            x  H            3         0.765730   0.815911   0.103820   x 
            x  H            4         0.234270   0.815911   0.896180   x 
            x  H            5         0.190770   0.305970   0.900063   x 
            x  H            6         0.809230   0.305970   0.099937   x 
            x  H            7         0.690770   0.805970   0.900063   x 
            x  H            8         0.309230   0.805970   0.099937   x 
            x  H            9         0.213641   0.150370   0.772173   x 
            x  H           10         0.786359   0.150370   0.227827   x 
            x  H           11         0.713641   0.650370   0.772173   x 
            x  H           12         0.286359   0.650370   0.227827   x 
            x  H           13         0.295129   0.958083   0.759089   x 
            x  H           14         0.704871   0.958083   0.240910   x 
            x  H           15         0.795129   0.458083   0.759089   x 
            x  H           16         0.204871   0.458083   0.240910   x 
            x  H           17         0.394280   0.826600   0.864308   x 
            x  H           18         0.605720   0.826600   0.135692   x 
            x  H           19         0.894280   0.326600   0.864308   x 
            x  H           20         0.105720   0.326600   0.135692   x 
            x  H           21         0.461551   0.857330   0.069091   x 
            x  H           22         0.538449   0.857330   0.930909   x 
            x  H           23         0.961551   0.357330   0.069091   x 
            x  H           24         0.038449   0.357330   0.930909   x 
            x  H           25         0.540900   0.132990   0.203898   x 
            x  H           26         0.459100   0.132990   0.796102   x 
            x  H           27         0.040900   0.632990   0.203898   x 
            x  H           28         0.959100   0.632990   0.796102   x 
            x  H           29         0.574518   0.247960   0.135437   x 
            x  H           30         0.425482   0.247960   0.864563   x 
            x  H           31         0.074518   0.747960   0.135437   x 
            x  H           32         0.925482   0.747960   0.864563   x 
            x  H           33         0.584681   0.262629   0.281621   x 
            x  H           34         0.415319   0.262629   0.718379   x 
            x  H           35         0.084681   0.762629   0.281621   x 
            x  H           36         0.915319   0.762629   0.718379   x 
            x  H           37         0.479270   0.239690   0.327900   x 
            x  H           38         0.520730   0.239690   0.672099   x 
            x  H           39         0.979270   0.739690   0.327900   x 
            x  H           40         0.020730   0.739690   0.672099   x 
            x  H           41         0.447439   0.268234   0.079759   x 
            x  H           42         0.552561   0.268234   0.920241   x 
            x  H           43         0.947439   0.768234   0.079759   x 
            x  H           44         0.052561   0.768234   0.920241   x 
            x  H           45         0.521331   0.454779   0.101000   x 
            x  H           46         0.478669   0.454779   0.899000   x 
            x  H           47         0.021331   0.954779   0.101000   x 
            x  H           48         0.978669   0.954779   0.899000   x 
            x  H           49         0.370871   0.439553   0.064859   x 
            x  H           50         0.629129   0.439553   0.935141   x 
            x  H           51         0.870871   0.939553   0.064859   x 
            x  H           52         0.129129   0.939553   0.935141   x 
            x  H           53         0.411850   0.585742   0.074457   x 
            x  H           54         0.588150   0.585742   0.925543   x 
            x  H           55         0.911850   0.085742   0.074457   x 
            x  H           56         0.088150   0.085742   0.925543   x 
            x  H           57         0.402769   0.584838   0.273857   x 
            x  H           58         0.597231   0.584838   0.726143   x 
            x  H           59         0.902769   0.084838   0.273857   x 
            x  H           60         0.097231   0.084838   0.726143   x 
            x  H           61         0.416130   0.385760   0.374938   x 
            x  H           62         0.583870   0.385760   0.625062   x 
            x  H           63         0.916130   0.885760   0.374938   x 
            x  H           64         0.083870   0.885760   0.625062   x 
            x  H           65         0.346458   0.380557   0.245510   x 
            x  H           66         0.653542   0.380557   0.754490   x 
            x  H           67         0.846458   0.880557   0.245510   x 
            x  H           68         0.153542   0.880557   0.754490   x 
            x  H           69         0.496041   0.682748   0.170570   x 
            x  H           70         0.503959   0.682748   0.829430   x 
            x  H           71        -0.003959   0.182748   0.170570   x 
            x  H           72         1.003959   0.182748   0.829430   x 
            x  H           73         0.527581   0.700566   0.320480   x 
            x  H           74         0.472419   0.700566   0.679520   x 
            x  H           75         0.027581   0.200566   0.320480   x 
            x  H           76         0.972419   0.200566   0.679520   x 
            x  H           77         0.583590   0.640037   0.250749   x 
            x  H           78         0.416409   0.640037   0.749251   x 
            x  H           79         0.083590   0.140037   0.250749   x 
            x  H           80         0.916409   0.140037   0.749251   x 
            x  H           81         0.542188   0.372004   0.399830   x 
            x  H           82         0.457812   0.372004   0.600170   x 
            x  H           83         0.042188   0.872004   0.399830   x 
            x  H           84         0.957812   0.872004   0.600170   x 
            x  H           85         0.609914   0.460183   0.377090   x 
            x  H           86         0.390086   0.460183   0.622910   x 
            x  H           87         0.109914   0.960183   0.377090   x 
            x  H           88         0.890086   0.960183   0.622910   x 
            x  H           89         0.555931   0.526016   0.447388   x 
            x  H           90         0.444069   0.526016   0.552612   x 
            x  H           91         0.055931   0.026016   0.447388   x 
            x  H           92         0.944069   0.026016   0.552612   x 
            x  H           93         0.210331   0.134770   0.159689   x 
            x  H           94         0.789669   0.134770   0.840311   x 
            x  H           95         0.710331   0.634770   0.159689   x 
            x  H           96         0.289669   0.634770   0.840311   x 
            x  H           97         0.180502  -0.006928   0.195800   x 
            x  H           98         0.819498  -0.006928   0.804200   x 
            x  H           99         0.680502   0.493072   0.195800   x 
            x  H          100         0.319498   0.493072   0.804200   x 
            x  H          101         0.208720   0.111483   0.298922   x 
            x  H          102         0.791280   0.111483   0.701078   x 
            x  H          103         0.708720   0.611483   0.298922   x 
            x  H          104         0.291280   0.611483   0.701078   x 
            x  H          105         0.323210   0.199261   0.321780   x 
            x  H          106         0.676790   0.199261   0.678220   x 
            x  H          107         0.823210   0.699261   0.321780   x 
            x  H          108         0.176790   0.699261   0.678220   x 
            x  H          109         0.299631   0.971876   0.188650   x 
            x  H          110         0.700369   0.971876   0.811350   x 
            x  H          111         0.799631   0.471876   0.188650   x 
            x  H          112         0.200369   0.471876   0.811350   x 
            x  H          113         0.261042   0.844984   0.320400   x 
            x  H          114         0.738958   0.844984   0.679600   x 
            x  H          115         0.761042   0.344984   0.320400   x 
            x  H          116         0.238958   0.344984   0.679600   x 
            x  H          117         0.388280   0.772926   0.415911   x 
            x  H          118         0.611720   0.772926   0.584089   x 
            x  H          119         0.888280   0.272926   0.415911   x 
            x  H          120         0.111720   0.272926   0.584089   x 
            x  H          121         0.404252   0.874404   0.314483   x 
            x  H          122         0.595748   0.874404   0.685517   x 
            x  H          123         0.904252   0.374404   0.314483   x 
            x  H          124         0.095748   0.374404   0.685517   x 
            x  H          125         0.442741   0.948261   0.552823   x 
            x  H          126         0.557259   0.948261   0.447177   x 
            x  H          127         0.942741   0.448261   0.552823   x 
            x  H          128         0.057259   0.448261   0.447177   x 
            x  H          129         0.415790   0.161031   0.480899   x 
            x  H          130         0.584210   0.161031   0.519101   x 
            x  H          131         0.915790   0.661031   0.480899   x 
            x  H          132         0.084210   0.661031   0.519101   x 
            x  H          133         0.460380   0.078987   0.405509   x 
            x  H          134         0.539620   0.078987   0.594491   x 
            x  H          135         0.960380   0.578987   0.405509   x 
            x  H          136         0.039620   0.578987   0.594491   x 
            x  H          137         0.336621   0.763450   0.531189   x 
            x  H          138         0.663379   0.763450   0.468811   x 
            x  H          139         0.836621   0.263450   0.531189   x 
            x  H          140         0.163379   0.263450   0.468811   x 
            x  H          141         0.346811   0.871447   0.641410   x 
            x  H          142         0.653189   0.871447   0.358590   x 
            x  H          143         0.846811   0.371447   0.641410   x 
            x  H          144         0.153189   0.371447   0.358590   x 
            x  H          145         0.261710   0.837216   0.543840   x 
            x  H          146         0.738290   0.837216   0.456160   x 
            x  H          147         0.761710   0.337216   0.543840   x 
            x  H          148         0.238290   0.337216   0.456160   x 
            x  H          149         0.295251   0.149594   0.459150   x 
            x  H          150         0.704749   0.149594   0.540850   x 
            x  H          151         0.795251   0.649594   0.459150   x 
            x  H          152         0.204749   0.649594   0.540850   x 
            x  H          153         0.235150   0.053364   0.494613   x 
            x  H          154         0.764850   0.053364   0.505387   x 
            x  H          155         0.735150   0.553364   0.494613   x 
            x  H          156         0.264850   0.553364   0.505387   x 
            x  H          157         0.317440   0.089229   0.598438   x 
            x  H          158         0.682560   0.089229   0.401562   x 
            x  H          159         0.817440   0.589229   0.598438   x 
            x  H          160         0.182560   0.589229   0.401562   x 
            x  B            1         0.386221   0.155372   0.213478   x 
            x  B            2         0.613779   0.155372   0.786522   x 
            x  B            3         0.886221   0.655372   0.213478   x 
            x  B            4         0.113779   0.655372   0.786522   x 
            x  C            1         0.276028   0.249046   0.046770   x 
            x  C            2         0.723972   0.249046   0.953230   x 
            x  C            3         0.776028   0.749046   0.046770   x 
            x  C            4         0.223972   0.749046   0.953230   x 
            x  C            5         0.234220   0.241762   0.932023   x 
            x  C            6         0.765779   0.241762   0.067977   x 
            x  C            7         0.734220   0.741762   0.932023   x 
            x  C            8         0.265779   0.741762   0.067977   x 
            x  C            9         0.246760   0.154824   0.861403   x 
            x  C           10         0.753240   0.154824   0.138597   x 
            x  C           11         0.746760   0.654824   0.861403   x 
            x  C           12         0.253240   0.654824   0.138597   x 
            x  C           13         0.302230   0.070936   0.905527   x 
            x  C           14         0.697770   0.070936   0.094473   x 
            x  C           15         0.802230   0.570936   0.905527   x 
            x  C           16         0.197770   0.570936   0.094473   x 
            x  C           17         0.341429   0.085942   0.021218   x 
            x  C           18         0.658571   0.085942   0.978782   x 
            x  C           19         0.841429   0.585942   0.021218   x 
            x  C           20         0.158571   0.585942   0.978782   x 
            x  C           21         0.322921   0.974140   0.849239   x 
            x  C           22         0.677079   0.974140   0.150761   x 
            x  C           23         0.822921   0.474140   0.849239   x 
            x  C           24         0.177079   0.474140   0.150761   x 
            x  C           25         0.378992   0.901100   0.909301   x 
            x  C           26         0.621008   0.901100   0.090699   x 
            x  C           27         0.878992   0.401100   0.909301   x 
            x  C           28         0.121008   0.401100   0.090699   x 
            x  C           29         0.417651   0.917079   0.025310   x 
            x  C           30         0.582349   0.917079   0.974690   x 
            x  C           31         0.917651   0.417079   0.025310   x 
            x  C           32         0.082349   0.417079   0.974690   x 
            x  C           33         0.398628   0.011766   0.082538   x 
            x  C           34         0.601372   0.011766   0.917462   x 
            x  C           35         0.898628   0.511766   0.082538   x 
            x  C           36         0.101372   0.511766   0.917462   x 
            x  C           37         0.548590   0.232058   0.198629   x 
            x  C           38         0.451410   0.232058   0.801371   x 
            x  C           39         0.048590   0.732058   0.198629   x 
            x  C           40         0.951410   0.732058   0.801371   x 
            x  C           41         0.438909   0.272141   0.249047   x 
            x  C           42         0.561091   0.272141   0.750953   x 
            x  C           43         0.938909   0.772141   0.249047   x 
            x  C           44         0.061091   0.772141   0.750953   x 
            x  C           45         0.479119   0.299973   0.166212   x 
            x  C           46         0.520881   0.299973   0.833788   x 
            x  C           47         0.979119   0.799973   0.166212   x 
            x  C           48         0.020881   0.799973   0.833788   x 
            x  C           49         0.488121   0.437344   0.153302   x 
            x  C           50         0.511879   0.437344   0.846698   x 
            x  C           51         0.988121   0.937344   0.153302   x 
            x  C           52         0.011879   0.937344   0.846698   x 
            x  C           53         0.414908   0.496723   0.116429   x 
            x  C           54         0.585092   0.496723   0.883571   x 
            x  C           55         0.914908   0.996723   0.116429   x 
            x  C           56         0.085092   0.996723   0.883571   x 
            x  C           57         0.425940   0.506225   0.243960   x 
            x  C           58         0.574060   0.506225   0.756040   x 
            x  C           59         0.925940   0.006225   0.243960   x 
            x  C           60         0.074060   0.006225   0.756040   x 
            x  C           61         0.404269   0.385340   0.282159   x 
            x  C           62         0.595731   0.385340   0.717841   x 
            x  C           63         0.904269   0.885340   0.282159   x 
            x  C           64         0.095731   0.885340   0.717841   x 
            x  C           65         0.506010   0.511721   0.266259   x 
            x  C           66         0.493990   0.511721   0.733741   x 
            x  C           67         0.006010   0.011721   0.266259   x 
            x  C           68         0.993990   0.011721   0.733741   x 
            x  C           69         0.529219   0.640831   0.250529   x 
            x  C           70         0.470781   0.640831   0.749471   x 
            x  C           71         0.029219   0.140831   0.250529   x 
            x  C           72         0.970781   0.140831   0.749471   x 
            x  C           73         0.555805   0.463624   0.378030   x 
            x  C           74         0.444195   0.463624   0.621970   x 
            x  C           75         0.055805   0.963624   0.378030   x 
            x  C           76         0.944195   0.963624   0.621970   x 
            x  C           77         0.219429   0.066581   0.227878   x 
            x  C           78         0.780571   0.066581   0.772122   x 
            x  C           79         0.719429   0.566581   0.227878   x 
            x  C           80         0.280571   0.566581   0.772122   x 
            x  C           81         0.350451   0.116896   0.306609   x 
            x  C           82         0.649548   0.116896   0.693391   x 
            x  C           83         0.850451   0.616896   0.306609   x 
            x  C           84         0.149548   0.616896   0.693391   x 
            x  C           85         0.293642   0.015856   0.264692   x 
            x  C           86         0.706358   0.015856   0.735308   x 
            x  C           87         0.793642   0.515856   0.264692   x 
            x  C           88         0.206358   0.515856   0.735308   x 
            x  C           89         0.304131   0.912122   0.350382   x 
            x  C           90         0.695869   0.912122   0.649618   x 
            x  C           91         0.804131   0.412122   0.350382   x 
            x  C           92         0.195869   0.412122   0.649618   x 
            x  C           93         0.380160   0.865997   0.380792   x 
            x  C           94         0.619840   0.865997   0.619208   x 
            x  C           95         0.880160   0.365997   0.380792   x 
            x  C           96         0.119840   0.365997   0.619208   x 
            x  C           97         0.399220   0.965942   0.472970   x 
            x  C           98         0.600780   0.965942   0.527030   x 
            x  C           99         0.899220   0.465942   0.472970   x 
            x  C          100         0.100780   0.465942   0.527030   x 
            x  C          101         0.409690   0.085678   0.419520   x 
            x  C          102         0.590310   0.085678   0.580480   x 
            x  C          103         0.909690   0.585678   0.419520   x 
            x  C          104         0.090310   0.585678   0.580480   x 
            x  C          105         0.323688   0.955363   0.476248   x 
            x  C          106         0.676312   0.955363   0.523752   x 
            x  C          107         0.823688   0.455363   0.476248   x 
            x  C          108         0.176312   0.455363   0.523752   x 
            x  C          109         0.317001   0.850817   0.551798   x 
            x  C          110         0.682999   0.850817   0.448202   x 
            x  C          111         0.817001   0.350817   0.551798   x 
            x  C          112         0.182999   0.350817   0.448202   x 
            x  C          113         0.291110   0.068152   0.507700   x 
            x  C          114         0.708890   0.068152   0.492300   x 
            x  C          115         0.791110   0.568152   0.507700   x 
            x  C          116         0.208890   0.568152   0.492300   x 
            x  N            1         0.329142   0.171830   0.089920   x 
            x  N            2         0.670858   0.171830   0.910080   x 
            x  N            3         0.829142   0.671830   0.089920   x 
            x  N            4         0.170858   0.671830   0.910080   x 
            x  O            1         0.425591   0.044929   0.189743   x 
            x  O            2         0.574409   0.044929   0.810257   x 
            x  O            3         0.925591   0.544929   0.189743   x 
            x  O            4         0.074409   0.544929   0.810257   x 
            xxxxxxxxxxxxxxxxxxxxxxxxxxxxxxxxxxxxxxxxxxxxxxxxxxxxxxxxxxxx


                         No user defined ionic velocities

                           -------------------------------
                                   Details of Species
                           -------------------------------

                               Mass of species in AMU
                                    H    1.0079400
                                    B   10.8110000
                                    C   12.0107000
                                    N   14.0067400
                                    O   15.9994000

                          Electric Quadrupole Moment (Barn)
                                    H    0.0028600 Isotope  2
                                    B    0.0405900 Isotope 11
                                    C    0.0332700 Isotope 11
                                    N    0.0204400 Isotope 14
                                    O   -0.0255800 Isotope 17

                          Files used for pseudopotentials:
                                    H 1|0.6|13|15|17|10(qc=8)
                                    B 2|1.2|12|14|16|20:21(qc=8)
                                    C 2|1.4|10|12|13|20:21(qc=7)
                                    N 2|1.1|14|16|18|20:21(qc=7)
                                    O 2|1.1|17|20|23|20:21(qc=8)

                           -------------------------------
                              k-Points For BZ Sampling
                           -------------------------------
                       MP grid size for SCF calculation is  2  4  4
                            with an offset of   0.000  0.000  0.000
                       Number of kpoints used =             8

                           -------------------------------
                               Symmetry and Constraints
                           -------------------------------

                      Cell is a supercell containing 2 primitive cells
                      Maximum deviation from symmetry = 0.128659E-12     ANG

                      Number of symmetry operations   =           4
                      Number of ionic constraints     =           3
                      Point group of crystal =     4: C2, 2, 2
                      Space group of crystal =     5: C2, C 2y

             Set iprint > 1 for details on symmetry rotations/translations

                         Centre of mass is constrained
             Set iprint > 1 for details of linear ionic constraints

                         Number of cell constraints= 6
                         Cell constraints are:  0 0 0 0 0 0

                         External pressure/stress (GPa)
                          0.00000   0.00000   0.00000
                                    0.00000   0.00000
                                              0.00000
 
+---------------- MEMORY AND SCRATCH DISK ESTIMATES PER PROCESS --------------+
|                                                     Memory          Disk    |
| Baseline code, static data and system overhead      823.0 MB         0.0 MB |
| BLAS internal memory storage                          0.0 MB         0.0 MB |
| Model and support data                             3933.5 MB         0.0 MB |
| Electronic energy minimisation requirements        3013.9 MB         0.0 MB |
| Force calculation requirements                      156.6 MB         0.0 MB |
| Stress calculation requirements                     173.0 MB         0.0 MB |
|                                               ----------------------------- |
| Approx. total storage required per process         7770.4 MB         0.0 MB |
|                                                                             |
| Requirements will fluctuate during execution and may exceed these estimates |
+-----------------------------------------------------------------------------+
Calculating finite basis set correction with  3 cut-off energies.
Calculating total energy with cut-off of  615.862 eV.
Calculating approximate eigenstates for fixed initial Hamiltonian
Cut-off for approx. calculation is   89.988 eV
Improving approx. states at cut-off of  462.594 eV
Resetting cut-off to  615.829 eV
Improving states further at cut-off of  615.829 eV
------------------------------------------------------------------------ <-- SCF
SCF loop      Energy                           Energy gain       Timer   <-- SCF
                                               per atom          (sec)   <-- SCF
------------------------------------------------------------------------ <-- SCF
Initial  -3.16014903E+002                                       2614.01  <-- SCF
      1  -2.38031310E+004                    8.15524865E+001    4315.81  <-- SCF
      2  -2.40045823E+004                    6.99483809E-001    6031.30  <-- SCF
      3  -2.40154373E+004                    3.76907843E-002    7748.67  <-- SCF
      4  -2.40159478E+004                    1.77246324E-003    9427.74  <-- SCF
      5  -2.40159914E+004                    1.51637937E-004   11106.54  <-- SCF
      6  -2.40159980E+004                    2.29003027E-005   12787.14  <-- SCF
      7  -2.40159992E+004                    3.89702543E-006   14467.46  <-- SCF
      8  -2.40159994E+004                    6.91308248E-007   16148.08  <-- SCF
------------------------------------------------------------------------ <-- SCF
 
Final energy =  -24015.99935109     eV
(energy not corrected for finite basis set)
 
Calculating total energy with cut-off of  620.862 eV.
------------------------------------------------------------------------ <-- SCF
SCF loop      Energy                           Energy gain       Timer   <-- SCF
                                               per atom          (sec)   <-- SCF
------------------------------------------------------------------------ <-- SCF
Initial  -2.40159994E+004                                      16834.13  <-- SCF
      1  -2.40161842E+004                    6.41788841E-004   18500.65  <-- SCF
      2  -2.40161842E+004                    5.35201397E-008   20147.50  <-- SCF
      3  -2.40161842E+004                    4.68880919E-009   21792.42  <-- SCF
------------------------------------------------------------------------ <-- SCF
 
Final energy =  -24016.18420304     eV
(energy not corrected for finite basis set)
 
Calculating total energy with cut-off of  625.862 eV.
------------------------------------------------------------------------ <-- SCF
SCF loop      Energy                           Energy gain       Timer   <-- SCF
                                               per atom          (sec)   <-- SCF
------------------------------------------------------------------------ <-- SCF
Initial  -2.40161842E+004                                      22458.77  <-- SCF
      1  -2.40163547E+004                    5.91998283E-004   24139.95  <-- SCF
      2  -2.40163547E+004                    5.70898046E-009   25834.76  <-- SCF
      3  -2.40163547E+004                    9.63627574E-011   27567.48  <-- SCF
------------------------------------------------------------------------ <-- SCF
 
Final energy =  -24016.35470022     eV
(energy not corrected for finite basis set)
 
 For future reference: finite basis dEtot/dlog(Ecut) =     -21.978148eV
 Total energy corrected for finite basis set =  -24016.354485 eV

WARNING - fixed cell calculation with finite basis correction ON
        - consider setting FINITE_BASIS_CORR=NONE
        - this will give a rigid shift in energies only.
     NB - this is intended for variable cell calculations with FIXED_NPW=FALSE
 
+---------------- MEMORY AND SCRATCH DISK ESTIMATES PER PROCESS --------------+
|                                                     Memory          Disk    |
| Model and support data                             3918.7 MB         0.0 MB |
| Electronic energy minimisation requirements        3013.9 MB         0.0 MB |
| Geometry minimisation requirements                 3523.7 MB         0.0 MB |
|                                               ----------------------------- |
| Approx. total storage required per process        10456.4 MB         0.0 MB |
|                                                                             |
| Requirements will fluctuate during execution and may exceed these estimates |
+-----------------------------------------------------------------------------+
 

 ******************************** Symmetrised Forces ********************************
 *                                                                                  *
 *                           Cartesian components (eV/A)                            *
 * -------------------------------------------------------------------------------- *
 *                         x                    y                    z              *
 *                                                                                  *
 * H               1     -0.00202              0.00189             -0.00209         *
 * H               2      0.00202              0.00189              0.00209         *
 * H               3     -0.00202              0.00189             -0.00209         *
 * H               4      0.00202              0.00189              0.00209         *
 * H               5      0.00658             -0.00527              0.00211         *
 * H               6     -0.00658             -0.00527             -0.00211         *
 * H               7      0.00658             -0.00527              0.00211         *
 * H               8     -0.00658             -0.00527             -0.00211         *
 * H               9     -0.00463              0.00177             -0.00860         *
 * H              10      0.00463              0.00177              0.00860         *
 * H              11     -0.00463              0.00177             -0.00860         *
 * H              12      0.00463              0.00177              0.00860         *
 * H              13     -0.00201              0.00530             -0.00251         *
 * H              14      0.00201              0.00530              0.00251         *
 * H              15     -0.00201              0.00530             -0.00251         *
 * H              16      0.00201              0.00530              0.00251         *
 * H              17     -0.00102             -0.00519             -0.00913         *
 * H              18      0.00102             -0.00519              0.00913         *
 * H              19     -0.00102             -0.00519             -0.00913         *
 * H              20      0.00102             -0.00519              0.00913         *
 * H              21     -0.00275             -0.00112             -0.00557         *
 * H              22      0.00275             -0.00112              0.00557         *
 * H              23     -0.00275             -0.00112             -0.00557         *
 * H              24      0.00275             -0.00112              0.00557         *
 * H              25     -0.00145             -0.00221             -0.00267         *
 * H              26      0.00145             -0.00221              0.00267         *
 * H              27     -0.00145             -0.00221             -0.00267         *
 * H              28      0.00145             -0.00221              0.00267         *
 * H              29     -0.00960             -0.00639              0.00303         *
 * H              30      0.00960             -0.00639             -0.00303         *
 * H              31     -0.00960             -0.00639              0.00303         *
 * H              32      0.00960             -0.00639             -0.00303         *
 * H              33      0.00376              0.00352              0.00446         *
 * H              34     -0.00376              0.00352             -0.00446         *
 * H              35      0.00376              0.00352              0.00446         *
 * H              36     -0.00376              0.00352             -0.00446         *
 * H              37     -0.00320             -0.00884             -0.01001         *
 * H              38      0.00320             -0.00884              0.01001         *
 * H              39     -0.00320             -0.00884             -0.01001         *
 * H              40      0.00320             -0.00884              0.01001         *
 * H              41     -0.00431              0.00416              0.00856         *
 * H              42      0.00431              0.00416             -0.00856         *
 * H              43     -0.00431              0.00416              0.00856         *
 * H              44      0.00431              0.00416             -0.00856         *
 * H              45      0.00578             -0.00557              0.01009         *
 * H              46     -0.00578             -0.00557             -0.01009         *
 * H              47      0.00578             -0.00557              0.01009         *
 * H              48     -0.00578             -0.00557             -0.01009         *
 * H              49     -0.00125             -0.00344             -0.00456         *
 * H              50      0.00125             -0.00344              0.00456         *
 * H              51     -0.00125             -0.00344             -0.00456         *
 * H              52      0.00125             -0.00344              0.00456         *
 * H              53     -0.00112             -0.00531             -0.00356         *
 * H              54      0.00112             -0.00531              0.00356         *
 * H              55     -0.00112             -0.00531             -0.00356         *
 * H              56      0.00112             -0.00531              0.00356         *
 * H              57      0.00649             -0.00720              0.00444         *
 * H              58     -0.00649             -0.00720             -0.00444         *
 * H              59      0.00649             -0.00720              0.00444         *
 * H              60     -0.00649             -0.00720             -0.00444         *
 * H              61     -0.00371             -0.00063             -0.00039         *
 * H              62      0.00371             -0.00063              0.00039         *
 * H              63     -0.00371             -0.00063             -0.00039         *
 * H              64      0.00371             -0.00063              0.00039         *
 * H              65     -0.00734             -0.00029             -0.00029         *
 * H              66      0.00734             -0.00029              0.00029         *
 * H              67     -0.00734             -0.00029             -0.00029         *
 * H              68      0.00734             -0.00029              0.00029         *
 * H              69     -0.00131              0.01197             -0.00548         *
 * H              70      0.00131              0.01197              0.00548         *
 * H              71     -0.00131              0.01197             -0.00548         *
 * H              72      0.00131              0.01197              0.00548         *
 * H              73      0.00463             -0.00102              0.00251         *
 * H              74     -0.00463             -0.00102             -0.00251         *
 * H              75      0.00463             -0.00102              0.00251         *
 * H              76     -0.00463             -0.00102             -0.00251         *
 * H              77      0.00552              0.00106             -0.00298         *
 * H              78     -0.00552              0.00106              0.00298         *
 * H              79      0.00552              0.00106             -0.00298         *
 * H              80     -0.00552              0.00106              0.00298         *
 * H              81     -0.00483              0.00102             -0.00983         *
 * H              82      0.00483              0.00102              0.00983         *
 * H              83     -0.00483              0.00102             -0.00983         *
 * H              84      0.00483              0.00102              0.00983         *
 * H              85     -0.00297              0.00085              0.00078         *
 * H              86      0.00297              0.00085             -0.00078         *
 * H              87     -0.00297              0.00085              0.00078         *
 * H              88      0.00297              0.00085             -0.00078         *
 * H              89     -0.00277             -0.00102             -0.00394         *
 * H              90      0.00277             -0.00102              0.00394         *
 * H              91     -0.00277             -0.00102             -0.00394         *
 * H              92      0.00277             -0.00102              0.00394         *
 * H              93     -0.00225             -0.00642              0.00333         *
 * H              94      0.00225             -0.00642             -0.00333         *
 * H              95     -0.00225             -0.00642              0.00333         *
 * H              96      0.00225             -0.00642             -0.00333         *
 * H              97      0.00525              0.00453              0.00212         *
 * H              98     -0.00525              0.00453             -0.00212         *
 * H              99      0.00525              0.00453              0.00212         *
 * H             100     -0.00525              0.00453             -0.00212         *
 * H             101     -0.00518             -0.00018              0.00586         *
 * H             102      0.00518             -0.00018             -0.00586         *
 * H             103     -0.00518             -0.00018              0.00586         *
 * H             104      0.00518             -0.00018             -0.00586         *
 * H             105     -0.00184              0.00302             -0.00851         *
 * H             106      0.00184              0.00302              0.00851         *
 * H             107     -0.00184              0.00302             -0.00851         *
 * H             108      0.00184              0.00302              0.00851         *
 * H             109     -0.00060             -0.00176              0.00555         *
 * H             110      0.00060             -0.00176             -0.00555         *
 * H             111     -0.00060             -0.00176              0.00555         *
 * H             112      0.00060             -0.00176             -0.00555         *
 * H             113     -0.00661              0.00685              0.00500         *
 * H             114      0.00661              0.00685             -0.00500         *
 * H             115     -0.00661              0.00685              0.00500         *
 * H             116      0.00661              0.00685             -0.00500         *
 * H             117      0.00399              0.00021             -0.00505         *
 * H             118     -0.00399              0.00021              0.00505         *
 * H             119      0.00399              0.00021             -0.00505         *
 * H             120     -0.00399              0.00021              0.00505         *
 * H             121     -0.00103              0.00389             -0.00851         *
 * H             122      0.00103              0.00389              0.00851         *
 * H             123     -0.00103              0.00389             -0.00851         *
 * H             124      0.00103              0.00389              0.00851         *
 * H             125     -0.00522              0.00446              0.00153         *
 * H             126      0.00522              0.00446             -0.00153         *
 * H             127     -0.00522              0.00446              0.00153         *
 * H             128      0.00522              0.00446             -0.00153         *
 * H             129      0.00119             -0.00150             -0.00746         *
 * H             130     -0.00119             -0.00150              0.00746         *
 * H             131      0.00119             -0.00150             -0.00746         *
 * H             132     -0.00119             -0.00150              0.00746         *
 * H             133      0.00719              0.00057              0.00522         *
 * H             134     -0.00719              0.00057             -0.00522         *
 * H             135      0.00719              0.00057              0.00522         *
 * H             136     -0.00719              0.00057             -0.00522         *
 * H             137      0.00228             -0.00790              0.00803         *
 * H             138     -0.00228             -0.00790             -0.00803         *
 * H             139      0.00228             -0.00790              0.00803         *
 * H             140     -0.00228             -0.00790             -0.00803         *
 * H             141     -0.00532              0.00202              0.00772         *
 * H             142      0.00532              0.00202             -0.00772         *
 * H             143     -0.00532              0.00202              0.00772         *
 * H             144      0.00532              0.00202             -0.00772         *
 * H             145     -0.00647             -0.00812              0.00188         *
 * H             146      0.00647             -0.00812             -0.00188         *
 * H             147     -0.00647             -0.00812              0.00188         *
 * H             148      0.00647             -0.00812             -0.00188         *
 * H             149      0.00432             -0.00581             -0.00053         *
 * H             150     -0.00432             -0.00581              0.00053         *
 * H             151      0.00432             -0.00581             -0.00053         *
 * H             152     -0.00432             -0.00581              0.00053         *
 * H             153      0.00105             -0.00053              0.00298         *
 * H             154     -0.00105             -0.00053             -0.00298         *
 * H             155      0.00105             -0.00053              0.00298         *
 * H             156     -0.00105             -0.00053             -0.00298         *
 * H             157     -0.00126             -0.00252              0.00470         *
 * H             158      0.00126             -0.00252             -0.00470         *
 * H             159     -0.00126             -0.00252              0.00470         *
 * H             160      0.00126             -0.00252             -0.00470         *
 * B               1      0.00664             -0.00184              0.00884         *
 * B               2     -0.00664             -0.00184             -0.00884         *
 * B               3      0.00664             -0.00184              0.00884         *
 * B               4     -0.00664             -0.00184             -0.00884         *
 * C               1     -0.00099              0.00098             -0.00157         *
 * C               2      0.00099              0.00098              0.00157         *
 * C               3     -0.00099              0.00098             -0.00157         *
 * C               4      0.00099              0.00098              0.00157         *
 * C               5     -0.00092              0.00227              0.00731         *
 * C               6      0.00092              0.00227             -0.00731         *
 * C               7     -0.00092              0.00227              0.00731         *
 * C               8      0.00092              0.00227             -0.00731         *
 * C               9      0.00288             -0.00527             -0.00540         *
 * C              10     -0.00288             -0.00527              0.00540         *
 * C              11      0.00288             -0.00527             -0.00540         *
 * C              12     -0.00288             -0.00527              0.00540         *
 * C              13     -0.00575              0.01560              0.00332         *
 * C              14      0.00575              0.01560             -0.00332         *
 * C              15     -0.00575              0.01560              0.00332         *
 * C              16      0.00575              0.01560             -0.00332         *
 * C              17      0.00784             -0.00790              0.00131         *
 * C              18     -0.00784             -0.00790             -0.00131         *
 * C              19      0.00784             -0.00790              0.00131         *
 * C              20     -0.00784             -0.00790             -0.00131         *
 * C              21     -0.01581              0.01192             -0.00315         *
 * C              22      0.01581              0.01192              0.00315         *
 * C              23     -0.01581              0.01192             -0.00315         *
 * C              24      0.01581              0.01192              0.00315         *
 * C              25      0.00454             -0.00256             -0.00117         *
 * C              26     -0.00454             -0.00256              0.00117         *
 * C              27      0.00454             -0.00256             -0.00117         *
 * C              28     -0.00454             -0.00256              0.00117         *
 * C              29     -0.00564              0.00568             -0.00767         *
 * C              30      0.00564              0.00568              0.00767         *
 * C              31     -0.00564              0.00568             -0.00767         *
 * C              32      0.00564              0.00568              0.00767         *
 * C              33     -0.00244              0.00543              0.00571         *
 * C              34      0.00244              0.00543             -0.00571         *
 * C              35     -0.00244              0.00543              0.00571         *
 * C              36      0.00244              0.00543             -0.00571         *
 * C              37      0.00213             -0.00183             -0.00171         *
 * C              38     -0.00213             -0.00183              0.00171         *
 * C              39      0.00213             -0.00183             -0.00171         *
 * C              40     -0.00213             -0.00183              0.00171         *
 * C              41     -0.00170              0.00351              0.00584         *
 * C              42      0.00170              0.00351             -0.00584         *
 * C              43     -0.00170              0.00351              0.00584         *
 * C              44      0.00170              0.00351             -0.00584         *
 * C              45      0.00855              0.00223             -0.00592         *
 * C              46     -0.00855              0.00223              0.00592         *
 * C              47      0.00855              0.00223             -0.00592         *
 * C              48     -0.00855              0.00223              0.00592         *
 * C              49     -0.00678              0.00923             -0.00425         *
 * C              50      0.00678              0.00923              0.00425         *
 * C              51     -0.00678              0.00923             -0.00425         *
 * C              52      0.00678              0.00923              0.00425         *
 * C              53     -0.00415             -0.00256             -0.00384         *
 * C              54      0.00415             -0.00256              0.00384         *
 * C              55     -0.00415             -0.00256             -0.00384         *
 * C              56      0.00415             -0.00256              0.00384         *
 * C              57     -0.00062              0.00746             -0.00051         *
 * C              58      0.00062              0.00746              0.00051         *
 * C              59     -0.00062              0.00746             -0.00051         *
 * C              60      0.00062              0.00746              0.00051         *
 * C              61     -0.00378              0.00258              0.00856         *
 * C              62      0.00378              0.00258             -0.00856         *
 * C              63     -0.00378              0.00258              0.00856         *
 * C              64      0.00378              0.00258             -0.00856         *
 * C              65     -0.00402             -0.00107              0.00278         *
 * C              66      0.00402             -0.00107             -0.00278         *
 * C              67     -0.00402             -0.00107              0.00278         *
 * C              68      0.00402             -0.00107             -0.00278         *
 * C              69      0.00203             -0.00522              0.00081         *
 * C              70     -0.00203             -0.00522             -0.00081         *
 * C              71      0.00203             -0.00522              0.00081         *
 * C              72     -0.00203             -0.00522             -0.00081         *
 * C              73     -0.00125             -0.00485              0.00109         *
 * C              74      0.00125             -0.00485             -0.00109         *
 * C              75     -0.00125             -0.00485              0.00109         *
 * C              76      0.00125             -0.00485             -0.00109         *
 * C              77     -0.00163              0.00030             -0.00804         *
 * C              78      0.00163              0.00030              0.00804         *
 * C              79     -0.00163              0.00030             -0.00804         *
 * C              80      0.00163              0.00030              0.00804         *
 * C              81     -0.00283              0.00722              0.00616         *
 * C              82      0.00283              0.00722             -0.00616         *
 * C              83     -0.00283              0.00722              0.00616         *
 * C              84      0.00283              0.00722             -0.00616         *
 * C              85     -0.01013             -0.00039              0.00070         *
 * C              86      0.01013             -0.00039             -0.00070         *
 * C              87     -0.01013             -0.00039              0.00070         *
 * C              88      0.01013             -0.00039             -0.00070         *
 * C              89      0.00836             -0.00281              0.00600         *
 * C              90     -0.00836             -0.00281             -0.00600         *
 * C              91      0.00836             -0.00281              0.00600         *
 * C              92     -0.00836             -0.00281             -0.00600         *
 * C              93     -0.00471             -0.00714             -0.00271         *
 * C              94      0.00471             -0.00714              0.00271         *
 * C              95     -0.00471             -0.00714             -0.00271         *
 * C              96      0.00471             -0.00714              0.00271         *
 * C              97     -0.00527             -0.00977              0.00154         *
 * C              98      0.00527             -0.00977             -0.00154         *
 * C              99     -0.00527             -0.00977              0.00154         *
 * C             100      0.00527             -0.00977             -0.00154         *
 * C             101      0.01414              0.00696              0.00668         *
 * C             102     -0.01414              0.00696             -0.00668         *
 * C             103      0.01414              0.00696              0.00668         *
 * C             104     -0.01414              0.00696             -0.00668         *
 * C             105      0.00211              0.00218              0.00046         *
 * C             106     -0.00211              0.00218             -0.00046         *
 * C             107      0.00211              0.00218              0.00046         *
 * C             108     -0.00211              0.00218             -0.00046         *
 * C             109      0.00732             -0.00122              0.00024         *
 * C             110     -0.00732             -0.00122             -0.00024         *
 * C             111      0.00732             -0.00122              0.00024         *
 * C             112     -0.00732             -0.00122             -0.00024         *
 * C             113      0.00085              0.00037              0.00168         *
 * C             114     -0.00085              0.00037             -0.00168         *
 * C             115      0.00085              0.00037              0.00168         *
 * C             116     -0.00085              0.00037             -0.00168         *
 * N               1     -0.00595              0.00194             -0.00049         *
 * N               2      0.00595              0.00194              0.00049         *
 * N               3     -0.00595              0.00194             -0.00049         *
 * N               4      0.00595              0.00194              0.00049         *
 * O               1     -0.00074             -0.00029             -0.00231         *
 * O               2      0.00074             -0.00029              0.00231         *
 * O               3     -0.00074             -0.00029             -0.00231         *
 * O               4      0.00074             -0.00029              0.00231         *
 *                                                                                  *
 ************************************************************************************
 LBFGS: finished iteration     0 with enthalpy= -2.40163545E+004 eV
  
 +-----------+-----------------+-----------------+------------+-----+ <-- LBFGS
 | Parameter |      value      |    tolerance    |    units   | OK? | <-- LBFGS
 +-----------+-----------------+-----------------+------------+-----+ <-- LBFGS
 |  dE/ion   |   0.000000E+000 |   2.000000E-005 |         eV | Yes | <-- LBFGS
 |  |F|max   |   2.004702E-002 |   5.000000E-002 |       eV/A | Yes | <-- LBFGS
 |  |dR|max  |   4.343983E-014 |   1.000000E-003 |          A | Yes | <-- LBFGS
 +-----------+-----------------+-----------------+------------+-----+ <-- LBFGS
  
 LBFGS: Geometry optimization completed successfully.

================================================================================
 LBFGS: Final Configuration:
================================================================================

                           -------------------------------
                                     Cell Contents
                           -------------------------------

            xxxxxxxxxxxxxxxxxxxxxxxxxxxxxxxxxxxxxxxxxxxxxxxxxxxxxxxxxxxxxxxxx
            x  Element         Atom        Fractional coordinates of atoms  x
            x                 Number           u          v          w      x
[...]
             C 22  -- C 34                  -0.11        2.83784
             C 23  -- C 35                  -0.11        2.83784
             C 21  -- C 33                  -0.11        2.83784
             C 53  -- C 69                  -0.06        2.84116
             C 54  -- C 70                  -0.06        2.84116
             C 55  -- C 71                  -0.06        2.84116
             C 56  -- C 72                  -0.06        2.84116
             H 73  -- H 138                 -0.01        2.84178
             H 74  -- H 137                 -0.01        2.84178
             H 75  -- H 140                 -0.01        2.84178
             H 76  -- H 139                 -0.01        2.84178
             H 60  -- H 72                  -0.01        2.84531
             H 58  -- H 70                  -0.01        2.84531
             H 59  -- H 71                  -0.01        2.84531
             H 57  -- H 69                  -0.01        2.84531
             H 44  -- C 20                  -0.02        2.84591
             H 43  -- C 19                  -0.02        2.84591
             H 42  -- C 18                  -0.02        2.84591
             H 41  -- C 17                  -0.02        2.84591
             H 103 -- C 91                  -0.03        2.84609
             H 102 -- C 90                  -0.03        2.84609
             H 101 -- C 89                  -0.03        2.84609
             H 104 -- C 92                  -0.03        2.84609
             H 14  -- C 10                  -0.04        2.84927
             H 13  -- C 9                   -0.04        2.84927
             H 16  -- C 12                  -0.04        2.84927
             H 15  -- C 11                  -0.04        2.84927
             H 103 -- C 83                  -0.03        2.85116
             H 102 -- C 82                  -0.03        2.85116
             H 101 -- C 81                  -0.03        2.85116
             H 104 -- C 84                  -0.03        2.85116
             H 36  -- C 44                  -0.03        2.85320
             H 34  -- C 42                  -0.03        2.85320
             H 33  -- C 41                  -0.03        2.85320
             H 35  -- C 43                  -0.03        2.85320
             H 11  -- C 23                  -0.04        2.85332
             H 9   -- C 21                  -0.04        2.85332
             H 12  -- C 24                  -0.04        2.85332
             H 10  -- C 22                  -0.04        2.85332
             C 95  -- C 111                 -0.06        2.85537
             C 94  -- C 110                 -0.06        2.85537
             C 93  -- C 109                 -0.06        2.85537
             C 96  -- C 112                 -0.06        2.85537
             H 131 -- C 115                 -0.02        2.85551
             H 132 -- C 116                 -0.02        2.85551
             H 130 -- C 114                 -0.02        2.85551
             H 129 -- C 113                 -0.02        2.85551
             H 39  -- C 75                  -0.04        2.85854
             H 40  -- C 76                  -0.04        2.85854
             H 38  -- C 74                  -0.04        2.85854
             H 37  -- C 73                  -0.04        2.85854
             H 122 -- C 82                  -0.01        2.86183
             H 121 -- C 81                  -0.01        2.86183
             H 124 -- C 84                  -0.01        2.86183
             H 123 -- C 83                  -0.01        2.86183
             H 94  -- N 2                   -0.02        2.86410
             H 96  -- N 4                   -0.02        2.86410
             H 93  -- N 1                   -0.02        2.86410
             H 95  -- N 3                   -0.02        2.86410
             H 144 -- C 100                 -0.04        2.86438
             H 143 -- C 99                  -0.04        2.86438
             H 142 -- C 98                  -0.04        2.86438
             H 141 -- C 97                  -0.04        2.86438
             C 15  -- C 31                  -0.09        2.86604
             C 14  -- C 30                  -0.09        2.86604
             C 13  -- C 29                  -0.09        2.86604
             C 16  -- C 32                  -0.09        2.86604
             H 40  -- C 84                  -0.03        2.87516
             H 38  -- C 82                  -0.03        2.87516
             H 37  -- C 81                  -0.03        2.87516
             H 39  -- C 83                  -0.03        2.87516
             H 16  -- H 148                 -0.01        2.87518
             H 15  -- H 147                 -0.01        2.87518
             H 14  -- H 146                 -0.01        2.87518
             H 13  -- H 145                 -0.01        2.87518
             H 150 -- C 98                  -0.03        2.88063
             H 152 -- C 100                 -0.03        2.88063
             H 151 -- C 99                  -0.03        2.88063
             H 149 -- C 97                  -0.03        2.88063
             H 18  -- H 69                  -0.01        2.88288
             H 20  -- H 71                  -0.01        2.88288
             H 17  -- H 70                  -0.01        2.88288
             H 19  -- H 72                  -0.01        2.88288
             H 82  -- C 46                  -0.01        2.88299
             H 81  -- C 45                  -0.01        2.88299
             H 84  -- C 48                  -0.01        2.88299
             H 83  -- C 47                  -0.01        2.88299
             H 3   -- H 107                 -0.00        2.88301
             H 1   -- H 105                 -0.00        2.88301
             H 4   -- H 108                 -0.00        2.88301
             H 2   -- H 106                 -0.00        2.88301
             H 12  -- H 117                 -0.01        2.88950
             H 10  -- H 119                 -0.01        2.88950
             H 11  -- H 118                 -0.01        2.88950
             H 9   -- H 120                 -0.01        2.88950
             H 2   -- H 15                  -0.01        2.89171
             H 1   -- H 16                  -0.01        2.89171
             H 4   -- H 13                  -0.01        2.89171
             H 3   -- H 14                  -0.01        2.89171
             H 76  -- C 60                  -0.04        2.89466
             H 75  -- C 59                  -0.04        2.89466
             H 73  -- C 57                  -0.04        2.89466
             H 74  -- C 58                  -0.04        2.89466
             C 81  -- C 93                  -0.04        2.89910
             C 84  -- C 96                  -0.04        2.89910
             C 83  -- C 95                  -0.04        2.89910
             C 82  -- C 94                  -0.04        2.89910
             H 111 -- C 6                   -0.03        2.90083
             H 112 -- C 5                   -0.03        2.90083
             H 109 -- C 8                   -0.03        2.90083
             H 110 -- C 7                   -0.03        2.90083
             H 126 -- H 138                 -0.00        2.90361
             H 128 -- H 140                 -0.00        2.90361
             H 125 -- H 137                 -0.00        2.90361
             H 127 -- H 139                 -0.00        2.90361
             H 84  -- C 60                  -0.03        2.90477
             H 83  -- C 59                  -0.03        2.90477
             H 81  -- C 57                  -0.03        2.90477
             H 82  -- C 58                  -0.03        2.90477
             H 51  -- C 43                  -0.01        2.90696
             H 49  -- C 41                  -0.01        2.90696
             H 52  -- C 44                  -0.01        2.90696
             H 50  -- C 42                  -0.01        2.90696
             H 107 -- C 43                  -0.03        2.90900
             H 105 -- C 41                  -0.03        2.90900
             H 108 -- C 44                  -0.03        2.90900
             H 106 -- C 42                  -0.03        2.90900
             H 44  -- O 4                   -0.00        2.91600
             H 43  -- O 3                   -0.00        2.91600
             H 41  -- O 1                   -0.00        2.91600
             H 42  -- O 2                   -0.00        2.91600
             C 44  -- C 56                  -0.04        2.91720
             C 42  -- C 54                  -0.04        2.91720
             C 43  -- C 55                  -0.04        2.91720
             C 41  -- C 53                  -0.04        2.91720
             H 131 -- C 107                 -0.03        2.91766
             H 132 -- C 108                 -0.03        2.91766
             H 130 -- C 106                 -0.03        2.91766
             H 129 -- C 105                 -0.03        2.91766
             H 77  -- C 49                  -0.03        2.92973
             H 79  -- C 51                  -0.03        2.92973
             H 78  -- C 50                  -0.03        2.92973
             H 80  -- C 52                  -0.03        2.92973
             H 149 -- C 77                  -0.02        2.93109
             H 151 -- C 79                  -0.02        2.93109
             H 150 -- C 78                  -0.02        2.93109
             H 152 -- C 80                  -0.02        2.93109
             H 18  -- H 95                  -0.01        2.93199
             H 17  -- H 96                  -0.01        2.93199
             H 20  -- H 93                  -0.01        2.93199
             H 19  -- H 94                  -0.01        2.93199
             C 42  -- C 66                  -0.05        2.93200
             C 44  -- C 68                  -0.05        2.93200
             C 41  -- C 65                  -0.05        2.93200
             C 43  -- C 67                  -0.05        2.93200
             H 6   -- C 31                  -0.02        2.93596
             H 7   -- C 30                  -0.02        2.93596
             H 8   -- C 29                  -0.02        2.93596
             H 5   -- C 32                  -0.02        2.93596
             H 122 -- H 126                  0.01        2.93693
             H 124 -- H 128                  0.01        2.93693
             H 123 -- H 127                  0.01        2.93693
             H 121 -- H 125                  0.01        2.93693
             H 106 -- H 134                  0.03        2.93771
             H 108 -- H 136                  0.03        2.93771
             H 105 -- H 133                  0.03        2.93771
             H 107 -- H 135                  0.03        2.93771
             H 48  -- H 52                   0.01        2.94129
             H 47  -- H 51                   0.01        2.94129
             H 46  -- H 50                   0.01        2.94129
             H 45  -- H 49                   0.01        2.94129
             H 52  -- H 60                   0.01        2.94602
             H 51  -- H 59                   0.01        2.94602
             H 50  -- H 58                   0.01        2.94602
             H 49  -- H 57                   0.01        2.94602
             H 105 -- H 109                  0.03        2.94666
             H 106 -- H 110                  0.03        2.94666
             H 108 -- H 112                  0.03        2.94666
             H 107 -- H 111                  0.03        2.94666
             H 66  -- N 2                   -0.00        2.94937
             H 68  -- N 4                   -0.00        2.94937
             H 65  -- N 1                   -0.00        2.94937
             H 67  -- N 3                   -0.00        2.94937
             H 3   -- B 3                   -0.05        2.94974
             H 4   -- B 4                   -0.05        2.94974
             H 1   -- B 1                   -0.05        2.94974
             H 2   -- B 2                   -0.05        2.94974
             H 7   -- C 34                  -0.02        2.95025
             H 6   -- C 35                  -0.02        2.95025
             H 5   -- C 36                  -0.02        2.95025
             H 8   -- C 33                  -0.02        2.95025
             H 64  -- C 76                  -0.01        2.95297
             H 62  -- C 74                  -0.01        2.95297
             H 63  -- C 75                  -0.01        2.95297
             H 61  -- C 73                  -0.01        2.95297
             H 147 -- C 91                  -0.03        2.95522
             H 148 -- C 92                  -0.03        2.95522
             H 146 -- C 90                  -0.03        2.95522
             H 145 -- C 89                  -0.03        2.95522
             H 114 -- H 122                  0.01        2.95556
             H 116 -- H 124                  0.01        2.95556
             H 115 -- H 123                  0.01        2.95556
             H 113 -- H 121                  0.01        2.95556
             C 83  -- C 107                 -0.05        2.95743
             C 81  -- C 105                 -0.05        2.95743
             C 84  -- C 108                 -0.05        2.95743
             C 82  -- C 106                 -0.05        2.95743
             H 131 -- H 159                 -0.01        2.96575
             H 132 -- H 160                 -0.01        2.96575
             H 130 -- H 158                 -0.01        2.96575
             H 129 -- H 157                 -0.01        2.96575
             H 64  -- C 68                  -0.03        2.96579
             H 62  -- C 66                  -0.03        2.96579
             H 61  -- C 65                  -0.03        2.96579
             H 63  -- C 67                  -0.03        2.96579
             H 106 -- N 2                   -0.01        2.96820
             H 105 -- N 1                   -0.01        2.96820
             H 107 -- N 3                   -0.01        2.96820
             H 108 -- N 4                   -0.01        2.96820
             H 151 -- C 91                  -0.02        2.97170
             H 150 -- C 90                  -0.02        2.97170
             H 152 -- C 92                  -0.02        2.97170
             H 149 -- C 89                  -0.02        2.97170
             H 159 -- C 99                  -0.02        2.97415
             H 157 -- C 97                  -0.02        2.97415
             H 160 -- C 100                 -0.02        2.97415
             H 158 -- C 98                  -0.02        2.97415
             H 40  -- H 44                   0.04        2.97437
             H 38  -- H 42                   0.04        2.97437
             H 39  -- H 43                   0.04        2.97437
             H 37  -- H 41                   0.04        2.97437
             H 38  -- H 66                   0.04        2.97458
             H 40  -- H 68                   0.04        2.97458
             H 37  -- H 65                   0.04        2.97458
             H 39  -- H 67                   0.04        2.97458
             H 148 -- H 160                 -0.00        2.97466
             H 147 -- H 159                 -0.00        2.97466
             H 146 -- H 158                 -0.00        2.97466
             H 145 -- H 157                 -0.00        2.97466
             C 103 -- C 115                 -0.05        2.98089
             C 101 -- C 113                 -0.05        2.98089
             C 104 -- C 116                 -0.05        2.98089
             C 102 -- C 114                 -0.05        2.98089
             H 68  -- C 84                  -0.02        2.98248
             H 67  -- C 83                  -0.02        2.98248
             H 65  -- C 81                  -0.02        2.98248
             H 66  -- C 82                  -0.02        2.98248
             H 80  -- C 78                  -0.03        2.98272
             H 78  -- C 80                  -0.03        2.98272
             H 79  -- C 77                  -0.03        2.98272
             H 77  -- C 79                  -0.03        2.98272
             H 14  -- H 67                  -0.01        2.98326
             H 16  -- H 65                  -0.01        2.98326
             H 13  -- H 68                  -0.01        2.98326
             H 15  -- H 66                  -0.01        2.98326
             H 41  -- C 33                  -0.01        2.98388
             H 44  -- C 36                  -0.01        2.98388
             H 43  -- C 35                  -0.01        2.98388
             H 42  -- C 34                  -0.01        2.98388
             H 77  -- H 89                  -0.00        2.98473
             H 78  -- H 90                  -0.00        2.98473
             H 79  -- H 91                  -0.00        2.98473
             H 80  -- H 92                  -0.00        2.98473
             H 80  -- H 139                 -0.01        2.98934
             H 79  -- H 140                 -0.01        2.98934
             H 78  -- H 137                 -0.01        2.98934
             H 77  -- H 138                 -0.01        2.98934
             H 91  -- H 92                  -0.01        2.99259
             H 89  -- H 90                  -0.01        2.99259
             H 80  -- H 143                 -0.01        2.99354
             H 79  -- H 144                 -0.01        2.99354
             H 78  -- H 141                 -0.01        2.99354
             H 77  -- H 142                 -0.01        2.99354
             H 83  -- C 39                  -0.02        2.99439
             H 81  -- C 37                  -0.02        2.99439
             H 82  -- C 38                  -0.02        2.99439
             H 84  -- C 40                  -0.02        2.99439
             H 106 -- C 114                 -0.03        2.99445
             H 108 -- C 116                 -0.03        2.99445
             H 107 -- C 115                 -0.03        2.99445
             H 105 -- C 113                 -0.03        2.99445
             H 91  -- C 59                  -0.02        2.99524
             H 89  -- C 57                  -0.02        2.99524
             H 92  -- C 60                  -0.02        2.99524
             H 90  -- C 58                  -0.02        2.99524
             H 137 -- H 152                 -0.00        2.99679
             H 140 -- H 149                 -0.00        2.99679
             H 138 -- H 151                 -0.00        2.99679
             H 139 -- H 150                 -0.00        2.99679
             H 84  -- C 52                  -0.02        2.99749
             H 83  -- C 51                  -0.02        2.99749
             H 82  -- C 50                  -0.02        2.99749
             H 81  -- C 49                  -0.02        2.99749
======================================================================


Writing analysis data to +_8-HQ-ipc2-B_opt.castep_bin

Writing model to +_8-HQ-ipc2-B_opt.check
 
 A BibTeX formatted list of references used in this run has been written to 
 +_8-HQ-ipc2-B_opt.bib
 
Initialisation time =    138.70 s
Calculation time    =  32934.70 s
Finalisation time   =     22.78 s
Total time          =  33096.17 s
Peak Memory Use     = 11673208 kB
 
Overall parallel efficiency rating: Excellent (92%)
 
Data was distributed by:-
k-point (8-way); efficiency rating: Excellent (92%)
