 +-------------------------------------------------+
 |                                                 |
 |      CCC   AA    SSS  TTTTT  EEEEE  PPPP        |
 |     C     A  A  S       T    E      P   P       |
 |     C     AAAA   SS     T    EEE    PPPP        |
 |     C     A  A     S    T    E      P           |
 |      CCC  A  A  SSS     T    EEEEE  P           |
 |                                                 |
 +-------------------------------------------------+
 |                                                 |
 | Welcome to Academic Release CASTEP version 22.11|
 | Ab Initio Total Energy Program                  |
 |                                                 |
 | Authors:                                        |
 | M. Segall, M. Probert, C. Pickard, P. Hasnip,   |
 | S. Clark, K. Refson, J. R. Yates, M. Payne      |
 |                                                 |
 | Contributors:                                   |
 | P. Lindan, P. Haynes, J. White, V. Milman,      |
 | N. Govind, M. Gibson, P. Tulip, V. Cocula,      |
 | B. Montanari, D. Quigley, M. Glover,            |
 | L. Bernasconi, A. Perlov, M. Plummer,           |
 | E. McNellis, J. Meyer, J. Gale, D. Jochym       |
 | J. Aarons, B. Walker, R. Gillen, D. Jones       |
 | T. Green, I. J. Bush, C. J. Armstrong,          |
 | E. J. Higgins, E. L. Brown, M. S. McFly,        |
 | J. Wilkins, B-C. Shih, P. J. P. Byrne,          |
 | R. J. Maurer, J. C. Womack, J. Dziedzic,        |
 | A. Bartok-Partay, L. LeBlanc, T. K. Stenczel,   |
 | J. Kermode, S. Sturniolo, B. Shi, B. Durham     |
 | M. Evans, M. J. Smith                           |
 |                                                 |
 | Copyright (c) 2000 - 2021                       |
 |                                                 |
 |     Distributed under license from Cambridge    |
 |     Enterprise for academic use only.           |
 |                                                 |
 | Please cite                                     |
 |                                                 |
 |     "First principles methods using CASTEP"     |
 |                                                 |
 |         Zeitschrift fuer Kristallographie       |
 |           220(5-6) pp. 567-570 (2005)           |
 |                                                 |
 | S. J. Clark, M. D. Segall, C. J. Pickard,       |
 | P. J. Hasnip, M. J. Probert, K. Refson,         |
 | M. C. Payne                                     |
 |                                                 |
 |       in all publications arising from          |
 |              your use of CASTEP                 |
 |                                                 |
 +-------------------------------------------------+
 |                                                 |
 |              http://www.castep.org              |
 |                                                 |
 +-------------------------------------------------+



 Compiled for linux_x86_64_gfortran10 on Tue, 24 Oct 2023 15:07:27 -0400
 from code version b807d1bba+  Castep221_branch  Wed Sep 14 11:18:35 2022 +0100
 Compiler: GNU Fortran 11.4.0; Optimisation: coverage
 MATHLIBS: openblas (LAPACK version 3.10.0)
 FFT Lib : fftw3 version fftw-3.3.8-sse2-avx
 Fundamental constants values: CODATA 2014

 Run started: Fri, 17 Nov 2023 10:04:47 -0500

 Atomic calculation performed for H: 1s1

 Converged in 41 iterations to an ae energy of -12.242 eV

   ============================================================                
   | Pseudopotential Report - Date of generation 17-11-2023   |                
   ------------------------------------------------------------                
   | Element: H Ionic charge:  1.00 Level of theory: PBESOL   |                
   | Atomic Solver: Koelling-Harmon                           |                
   |                                                          |                
   |               Reference Electronic Structure             |                
   |         Orbital         Occupation         Energy        |                
 +-------------------------------------------------+
 |                                                 |
 |      CCC   AA    SSS  TTTTT  EEEEE  PPPP        |
 |     C     A  A  S       T    E      P   P       |
 |     C     AAAA   SS     T    EEE    PPPP        |
 |     C     A  A     S    T    E      P           |
 |      CCC  A  A  SSS     T    EEEEE  P           |
 |                                                 |
 +-------------------------------------------------+
 |                                                 |
 | Welcome to Academic Release CASTEP version 22.11|
 | Ab Initio Total Energy Program                  |
 |                                                 |
 | Authors:                                        |
 | M. Segall, M. Probert, C. Pickard, P. Hasnip,   |
 | S. Clark, K. Refson, J. R. Yates, M. Payne      |
 |                                                 |
 | Contributors:                                   |
 | P. Lindan, P. Haynes, J. White, V. Milman,      |
 | N. Govind, M. Gibson, P. Tulip, V. Cocula,      |
 | B. Montanari, D. Quigley, M. Glover,            |
 | L. Bernasconi, A. Perlov, M. Plummer,           |
 | E. McNellis, J. Meyer, J. Gale, D. Jochym       |
 | J. Aarons, B. Walker, R. Gillen, D. Jones       |
 | T. Green, I. J. Bush, C. J. Armstrong,          |
 | E. J. Higgins, E. L. Brown, M. S. McFly,        |
 | J. Wilkins, B-C. Shih, P. J. P. Byrne,          |
 | R. J. Maurer, J. C. Womack, J. Dziedzic,        |
 | A. Bartok-Partay, L. LeBlanc, T. K. Stenczel,   |
 | J. Kermode, S. Sturniolo, B. Shi, B. Durham     |
 | M. Evans, M. J. Smith                           |
 |                                                 |
 | Copyright (c) 2000 - 2021                       |
 |                                                 |
 |     Distributed under license from Cambridge    |
 |     Enterprise for academic use only.           |
 |                                                 |
 | Please cite                                     |
 |                                                 |
 |     "First principles methods using CASTEP"     |
 |                                                 |
 |         Zeitschrift fuer Kristallographie       |
 |           220(5-6) pp. 567-570 (2005)           |
 |                                                 |
 | S. J. Clark, M. D. Segall, C. J. Pickard,       |
 | P. J. Hasnip, M. J. Probert, K. Refson,         |
 | M. C. Payne                                     |
 |                                                 |
 |       in all publications arising from          |
 |              your use of CASTEP                 |
 |                                                 |
 +-------------------------------------------------+
 |                                                 |
 |              http://www.castep.org              |
 |                                                 |
 +-------------------------------------------------+



 Compiled for linux_x86_64_gfortran10 on Tue, 24 Oct 2023 15:07:27 -0400
 from code version b807d1bba+  Castep221_branch  Wed Sep 14 11:18:35 2022 +0100
 Compiler: GNU Fortran 11.4.0; Optimisation: coverage
 MATHLIBS: openblas (LAPACK version 3.10.0)
 FFT Lib : fftw3 version fftw-3.3.8-sse2-avx
 Fundamental constants values: CODATA 2014

 Run started: Fri, 17 Nov 2023 10:05:09 -0500

 Atomic calculation performed for H: 1s1

 Converged in 41 iterations to an ae energy of -12.242 eV

   ============================================================                
   | Pseudopotential Report - Date of generation 17-11-2023   |                
   ------------------------------------------------------------                
   | Element: H Ionic charge:  1.00 Level of theory: PBESOL   |                
   | Atomic Solver: Koelling-Harmon                           |                
   |                                                          |                
   |               Reference Electronic Structure             |                
   |         Orbital         Occupation         Energy        |                
   |            1s              1.000           -0.233        |                
   |                                                          |                
   |                 Pseudopotential Definition               |                
   |        Beta     l      e      Rc     scheme   norm       |                
   |          1      0   -0.233   0.599     qc      0         |                
   |          2      0    0.250   0.599     qc      0         |                
   |         loc     1    0.000   0.599     pn      0         |                
   |                                                          |                
   | Augmentation charge Rinner = 0.421                       |                
   | No partial core correction                               |                
   ------------------------------------------------------------                
   | "1|0.6|13|15|17|10(qc=8)"                                |                
   ------------------------------------------------------------                
   |      Author: Chris J. Pickard, Cambridge University      |                
   ============================================================                

 Atomic calculation performed for B: 1s2 2s2 2p1

 Converged in 48 iterations to an ae energy of -665.855 eV

   ============================================================                
   | Pseudopotential Report - Date of generation 17-11-2023   |                
   ------------------------------------------------------------                
   | Element: B Ionic charge:  3.00 Level of theory: PBESOL   |                
   | Atomic Solver: Koelling-Harmon                           |                
   |                                                          |                
   |               Reference Electronic Structure             |                
   |         Orbital         Occupation         Energy        |                
   |            2s              2.000           -0.344        |                
   |            2p              1.000           -0.131        |                
   |                                                          |                
   |                 Pseudopotential Definition               |                
   |        Beta     l      e      Rc     scheme   norm       |                
   |          1      0   -0.344   1.199     qc      0         |                
   |          2      0    0.250   1.199     qc      0         |                
   |          3      1   -0.131   1.199     qc      0         |                
   |          4      1    0.250   1.199     qc      0         |                
   |         loc     2    0.000   1.199     pn      0         |                
   |                                                          |                
   | Augmentation charge Rinner = 0.838                       |                
   | Partial core correction Rc = 0.838                       |                
   ------------------------------------------------------------                
   | "2|1.2|12|14|16|20:21(qc=8)"                             |                
   ------------------------------------------------------------                
   |      Author: Chris J. Pickard, Cambridge University      |                
   ============================================================                

 Atomic calculation performed for C: 1s2 2s2 2p2

 Converged in 55 iterations to an ae energy of -1022.967 eV

   ============================================================                
   | Pseudopotential Report - Date of generation 17-11-2023   |                
   ------------------------------------------------------------                
   | Element: C Ionic charge:  4.00 Level of theory: PBESOL   |                
   | Atomic Solver: Koelling-Harmon                           |                
   |                                                          |                
   |               Reference Electronic Structure             |                
   |         Orbital         Occupation         Energy        |                
   |            2s              2.000           -0.502        |                
   |            2p              2.000           -0.192        |                
   |                                                          |                
   |                 Pseudopotential Definition               |                
   |        Beta     l      e      Rc     scheme   norm       |                
   |          1      0   -0.502   1.395     qc      0         |                
   |          2      0    0.250   1.395     qc      0         |                
   |          3      1   -0.192   1.395     qc      0         |                
   |          4      1    0.250   1.395     qc      0         |                
   |         loc     2    0.000   1.395     pn      0         |                
   |                                                          |                
   | Augmentation charge Rinner = 0.983                       |                
   | Partial core correction Rc = 0.983                       |                
   ------------------------------------------------------------                
   | "2|1.4|10|12|13|20:21(qc=7)"                             |                
   ------------------------------------------------------------                
   |      Author: Chris J. Pickard, Cambridge University      |                
   ============================================================                

 Atomic calculation performed for N: 1s2 2s2 2p3

 Converged in 60 iterations to an ae energy of -1475.991 eV

   ============================================================                
   | Pseudopotential Report - Date of generation 17-11-2023   |                
   ------------------------------------------------------------                
   | Element: N Ionic charge:  5.00 Level of theory: PBESOL   |                
   | Atomic Solver: Koelling-Harmon                           |                
   |                                                          |                
   |               Reference Electronic Structure             |                
   |         Orbital         Occupation         Energy        |                
   |            2s              2.000           -0.678        |                
   |            2p              3.000           -0.259        |                
   |                                                          |                
   |                 Pseudopotential Definition               |                
   |        Beta     l      e      Rc     scheme   norm       |                
   |          1      0   -0.678   1.100     qc      0         |                
   |          2      0    0.250   1.100     qc      0         |                
   |          3      1   -0.259   1.100     qc      0         |                
   |          4      1    0.250   1.100     qc      0         |                
   |         loc     2    0.000   1.100     pn      0         |                
   |                                                          |                
   | Augmentation charge Rinner = 0.769                       |                
   | Partial core correction Rc = 0.769                       |                
   ------------------------------------------------------------                
   | "2|1.1|14|16|18|20:21(qc=7)"                             |                
   ------------------------------------------------------------                
   |      Author: Chris J. Pickard, Cambridge University      |                
   ============================================================                

 Atomic calculation performed for O: 1s2 2s2 2p4

 Converged in 57 iterations to an ae energy of -2034.019 eV

   ============================================================                
   | Pseudopotential Report - Date of generation 17-11-2023   |                
   ------------------------------------------------------------                
   | Element: O Ionic charge:  6.00 Level of theory: PBESOL   |                
   | Atomic Solver: Koelling-Harmon                           |                
   |                                                          |                
   |               Reference Electronic Structure             |                
   |         Orbital         Occupation         Energy        |                
   |            2s              2.000           -0.875        |                
   |            2p              4.000           -0.330        |                
   |                                                          |                
   |                 Pseudopotential Definition               |                
   |        Beta     l      e      Rc     scheme   norm       |                
   |          1      0   -0.875   1.100     qc      0         |                
   |          2      0    0.250   1.100     qc      0         |                
   |          3      1   -0.330   1.100     qc      0         |                
   |          4      1    0.250   1.100     qc      0         |                
   |         loc     2    0.000   1.100     pn      0         |                
   |                                                          |                
   | Augmentation charge Rinner = 0.769                       |                
   | Partial core correction Rc = 0.769                       |                
   ------------------------------------------------------------                
   | "2|1.1|17|20|23|20:21(qc=8)"                             |                
   ------------------------------------------------------------                
   |      Author: Chris J. Pickard, Cambridge University      |                
   ============================================================                

 Pseudo atomic calculation performed for H 1s1

 Converged in 14 iterations to a total energy of -12.2361 eV

 Pseudo atomic calculation performed for B 2s2 2p1

 Converged in 15 iterations to a total energy of -82.9358 eV

 Pseudo atomic calculation performed for C 2s2 2p2

 Converged in 17 iterations to a total energy of -147.8638 eV

 Pseudo atomic calculation performed for N 2s2 2p3

 Converged in 20 iterations to a total energy of -267.1659 eV

 Pseudo atomic calculation performed for O 2s2 2p4

 Converged in 14 iterations to a total energy of -430.8367 eV
 Calculation parallelised over 8 processes.
 Data is distributed by k-point(8-way)

 ************************************ Title ************************************
 

 ***************************** General Parameters ******************************
  
 output verbosity                               : normal  (1)
 write checkpoint data to                       : 8-HQ-ipc2-B_opt.check
 type of calculation                            : geometry optimization
 stress calculation                             : on
 density difference calculation                 : off
 electron localisation func (ELF) calculation   : off
 Hirshfeld analysis                             : off
 polarisation (Berry phase) analysis            : off
 molecular orbital projected DOS                : off
 deltaSCF calculation                           : off
 unlimited duration calculation
 timing information                             : on
 memory usage estimate                          : on
 write extra output files                       : on
 write final potential to formatted file        : off
 write final density to formatted file          : on
 write structure in CELL formatted file         : on
 write BibTeX reference list                    : on
 write OTFG pseudopotential files               : on
 write electrostatic potential file             : on
 write bands file                               : on
 checkpoint writing                             : both castep_bin and check files
  
 output         length unit                     : A
 output           mass unit                     : amu
 output           time unit                     : ps
 output         charge unit                     : e
 output           spin unit                     : hbar/2
 output         energy unit                     : eV
 output          force unit                     : eV/A
 output       velocity unit                     : A/ps
 output       pressure unit                     : GPa
 output     inv_length unit                     : 1/A
 output      frequency unit                     : cm-1
 output force constant unit                     : eV/A**2
 output         volume unit                     : A**3
 output   IR intensity unit                     : (D/A)**2/amu
 output         dipole unit                     : D
 output         efield unit                     : eV/A/e
 output        entropy unit                     : J/mol/K
 output    efield chi2 unit                     : pm/V
  
 wavefunctions paging                           : none
 random number generator seed                   : randomised (100509779)
 data distribution                              : optimal for this architecture
 optimization strategy                          : maximize speed(+++)

 *********************** Exchange-Correlation Parameters ***********************
  
 using functional                               : PBE for solids (2008)
 relativistic treatment                         : Koelling-Harmon
 DFT+D: Semi-empirical dispersion correction    : off

 ************************* Pseudopotential Parameters **************************
  
 pseudopotential representation                 : reciprocal space
 <beta|phi> representation                      : reciprocal space
 spin-orbit coupling                            : off

 **************************** Basis Set Parameters *****************************
  
 basis set accuracy                             : FINE
 plane wave basis set cut-off                   :   625.8619   eV
 size of standard grid                          :     1.7500
 size of   fine   gmax                          :    22.4293   1/A
 finite basis set correction                    : automatic
 number of sample energies                      :          3
           sample  spacing                      :     5.0000   eV

 **************************** Electronic Parameters ****************************
  
 number of  electrons                           :  680.0    
 net charge of system                           :  0.000    
 treating system as non-spin-polarized
 number of bands                                :        340

 ********************* Electronic Minimization Parameters **********************
  
 Method: Treating system as non-metallic,
         and number of  SD  steps               :          1
         and number of  CG  steps               :          4
  
 total energy / atom convergence tol.           : 0.1000E-04   eV
 max force / atom convergence tol.              : ignored
 convergence tolerance window                   :          3   cycles
 max. number of SCF cycles                      :        100
 periodic dipole correction                     : NONE

 *********************** Population Analysis Parameters ************************
  
 Population analysis with cutoff                :  3.000       A
 Population analysis output                     : summary and pdos components

 ********************** Geometry Optimization Parameters ***********************
  
 optimization method                            : LBFGS
 max. no. of LBFGS updates                      : unbounded
 variable cell method                           : fixed basis quality
 max. number of steps                           :        100
 estimated bulk modulus                         :  500.0       GPa
 estimated <frequency>                          :  1668.       cm-1
 geom line minimiser                            : on
 with line minimiser tolerance                  :     0.4000
 total energy convergence tolerance             : 0.2000E-04   eV/atom
        max ionic |force| tolerance             : 0.5000E-01   eV/A
 max ionic |displacement| tolerance             : 0.1000E-02   A
   max |stress component| tolerance             : 0.1000       GPa
 convergence tolerance window                   :          2   steps
 backup results every                           : 2147483647   steps
 write geom trajectory file                     : on

 *******************************************************************************
  

                           -------------------------------
                                      Unit Cell
                           -------------------------------
        Real Lattice(A)                      Reciprocal Lattice(1/A)
    20.3330000     0.0000000     0.0000000        0.309014179   0.000000000   0.111471325
     0.0000000    10.9550000     0.0000000        0.000000000   0.573544985   0.000000000
    -4.2585793     0.0000000    11.8053802        0.000000000   0.000000000   0.532230659

                       Lattice parameters(A)       Cell Angles
                    a =     20.333000          alpha =   90.000000
                    b =     10.955000          beta  =  109.836000
                    c =     12.550000          gamma =   90.000000

                       Current cell volume =          2629.625015       A**3
                                   density =             0.653241   AMU/A**3
                                           =             1.084733     g/cm^3

                           -------------------------------
                                     Cell Contents
                           -------------------------------
                         Total number of ions in cell =  288
                      Total number of species in cell =    5
                        Max number of any one species =  160

            xxxxxxxxxxxxxxxxxxxxxxxxxxxxxxxxxxxxxxxxxxxxxxxxxxxxxxxxxxxx
            x  Element    Atom        Fractional coordinates of atoms  x
            x            Number           u          v          w      x
            x----------------------------------------------------------x
            x  H            1         0.265383   0.684900   0.100224   x 
            x  H            2         0.734617   0.684900   0.899776   x 
            x  H            3         0.765383   0.184900   0.100224   x 
            x  H            4         0.234617   0.184900   0.899776   x 
            x  H            5         0.190284   0.696748   0.897106   x 
            x  H            6         0.809716   0.696748   0.102894   x 
            x  H            7         0.690284   0.196748   0.897106   x 
            x  H            8         0.309716   0.196748   0.102894   x 
            x  H            9         0.213797   0.851728   0.769782   x 
            x  H           10         0.786203   0.851728   0.230218   x 
            x  H           11         0.713797   0.351728   0.769782   x 
            x  H           12         0.286203   0.351728   0.230218   x 
            x  H           13         0.295401   0.043250   0.757233   x 
            x  H           14         0.704599   0.043250   0.242767   x 
            x  H           15         0.795401   0.543250   0.757233   x 
            x  H           16         0.204599   0.543250   0.242767   x 
            x  H           17         0.394476   0.174883   0.862525   x 
            x  H           18         0.605524   0.174883   0.137475   x 
            x  H           19         0.894476   0.674883   0.862525   x 
            x  H           20         0.105524   0.674883   0.137475   x 
            x  H           21         0.461228   0.144228   0.067171   x 
            x  H           22         0.538772   0.144228   0.932829   x 
            x  H           23         0.961228   0.644228   0.067171   x 
            x  H           24         0.038772   0.644228   0.932829   x 
            x  H           25         0.542431   0.865729   0.201978   x 
            x  H           26         0.457569   0.865729   0.798022   x 
            x  H           27         0.042431   0.365729   0.201978   x 
            x  H           28         0.957569   0.365729   0.798022   x 
            x  H           29         0.575444   0.750494   0.133949   x 
            x  H           30         0.424556   0.750494   0.866051   x 
            x  H           31         0.075444   0.250494   0.133949   x 
            x  H           32         0.924556   0.250494   0.866051   x 
            x  H           33         0.586745   0.737409   0.280070   x 
            x  H           34         0.413255   0.737409   0.719930   x 
            x  H           35         0.086745   0.237409   0.280070   x 
            x  H           36         0.913255   0.237409   0.719930   x 
            x  H           37         0.479748   0.759701   0.327312   x 
            x  H           38         0.520252   0.759701   0.672688   x 
            x  H           39         0.979748   0.259701   0.327312   x 
            x  H           40         0.020252   0.259701   0.672688   x 
            x  H           41         0.448938   0.728883   0.079755   x 
            x  H           42         0.551062   0.728883   0.920245   x 
            x  H           43         0.948938   0.228883   0.079755   x 
            x  H           44         0.051062   0.228883   0.920245   x 
            x  H           45         0.522909   0.542589   0.102257   x 
            x  H           46         0.477092   0.542589   0.897743   x 
            x  H           47         0.022909   0.042589   0.102257   x 
            x  H           48         0.977092   0.042589   0.897743   x 
            x  H           49         0.372386   0.557626   0.064598   x 
            x  H           50         0.627614   0.557626   0.935401   x 
            x  H           51         0.872386   0.057626   0.064598   x 
            x  H           52         0.127614   0.057626   0.935401   x 
            x  H           53         0.413079   0.412102   0.074688   x 
            x  H           54         0.586921   0.412102   0.925312   x 
            x  H           55         0.913079   0.912102   0.074688   x 
            x  H           56         0.086921   0.912102   0.925312   x 
            x  H           57         0.403593   0.413765   0.274321   x 
            x  H           58         0.596407   0.413765   0.725679   x 
            x  H           59         0.903593   0.913765   0.274321   x 
            x  H           60         0.096407   0.913765   0.725679   x 
            x  H           61         0.416921   0.613142   0.374875   x 
            x  H           62         0.583079   0.613142   0.625125   x 
            x  H           63         0.916921   0.113142   0.374875   x 
            x  H           64         0.083079   0.113142   0.625125   x 
            x  H           65         0.347498   0.617491   0.246038   x 
            x  H           66         0.652502   0.617491   0.753962   x 
            x  H           67         0.847498   0.117491   0.246038   x 
            x  H           68         0.152502   0.117491   0.753962   x 
            x  H           69         0.497555   0.313587   0.171288   x 
            x  H           70         0.502445   0.313587   0.828712   x 
            x  H           71        -0.002445   0.813587   0.171288   x 
            x  H           72         1.002445   0.813587   0.828712   x 
            x  H           73         0.528328   0.295265   0.320494   x 
            x  H           74         0.471672   0.295265   0.679506   x 
            x  H           75         0.028328   0.795265   0.320494   x 
            x  H           76         0.971672   0.795265   0.679506   x 
            x  H           77         0.584585   0.355318   0.251884   x 
            x  H           78         0.415415   0.355318   0.748116   x 
            x  H           79         0.084585   0.855318   0.251884   x 
            x  H           80         0.915415   0.855318   0.748116   x 
            x  H           81         0.544325   0.623619   0.402211   x 
            x  H           82         0.455675   0.623619   0.597789   x 
            x  H           83         0.044325   0.123619   0.402211   x 
            x  H           84         0.955675   0.123619   0.597789   x 
            x  H           85         0.611479   0.535804   0.378833   x 
            x  H           86         0.388521   0.535804   0.621167   x 
            x  H           87         0.111479   0.035804   0.378833   x 
            x  H           88         0.888521   0.035804   0.621167   x 
            x  H           89         0.557641   0.469835   0.448553   x 
            x  H           90         0.442359   0.469835   0.551447   x 
            x  H           91         0.057641   0.969835   0.448553   x 
            x  H           92         0.942359   0.969835   0.551447   x 
            x  H           93         0.208514   0.867670   0.159272   x 
            x  H           94         0.791486   0.867670   0.840728   x 
            x  H           95         0.708514   0.367670   0.159272   x 
            x  H           96         0.291486   0.367670   0.840728   x 
            x  H           97         0.179605   1.009446   0.195305   x 
            x  H           98         0.820395   1.009446   0.804695   x 
            x  H           99         0.679605   0.509446   0.195305   x 
            x  H          100         0.320395   0.509446   0.804695   x 
            x  H          101         0.206710   0.891234   0.297831   x 
            x  H          102         0.793290   0.891234   0.702169   x 
            x  H          103         0.706710   0.391234   0.297831   x 
            x  H          104         0.293290   0.391234   0.702169   x 
            x  H          105         0.322835   0.801863   0.320881   x 
            x  H          106         0.677165   0.801863   0.679119   x 
            x  H          107         0.822835   0.301863   0.320881   x 
            x  H          108         0.177165   0.301863   0.679119   x 
            x  H          109         0.298518   0.030252   0.189470   x 
            x  H          110         0.701482   0.030252   0.810530   x 
            x  H          111         0.798518   0.530252   0.189470   x 
            x  H          112         0.201482   0.530252   0.810530   x 
            x  H          113         0.260160   0.155931   0.322111   x 
            x  H          114         0.739840   0.155931   0.677889   x 
            x  H          115         0.760160   0.655931   0.322111   x 
            x  H          116         0.239840   0.655931   0.677889   x 
            x  H          117         0.387520   0.228558   0.417347   x 
            x  H          118         0.612480   0.228558   0.582653   x 
            x  H          119         0.887520   0.728558   0.417347   x 
            x  H          120         0.112480   0.728558   0.582653   x 
            x  H          121         0.403438   0.127977   0.316244   x 
            x  H          122         0.596562   0.127977   0.683756   x 
            x  H          123         0.903438   0.627977   0.316244   x 
            x  H          124         0.096562   0.627977   0.683756   x 
            x  H          125         0.441830   0.052088   0.554098   x 
            x  H          126         0.558170   0.052088   0.445902   x 
            x  H          127         0.941830   0.552088   0.554098   x 
            x  H          128         0.058170   0.552088   0.445902   x 
            x  H          129         0.414853   0.839547   0.480619   x 
            x  H          130         0.585147   0.839547   0.519381   x 
            x  H          131         0.914853   0.339547   0.480619   x 
            x  H          132         0.085147   0.339547   0.519381   x 
            x  H          133         0.459699   0.922218   0.406921   x 
            x  H          134         0.540301   0.922218   0.593079   x 
            x  H          135         0.959699   0.422218   0.406921   x 
            x  H          136         0.040301   0.422218   0.593079   x 
            x  H          137         0.334255   0.238839   0.531547   x 
            x  H          138         0.665745   0.238839   0.468453   x 
            x  H          139         0.834255   0.738839   0.531547   x 
            x  H          140         0.165745   0.738839   0.468453   x 
            x  H          141         0.346702   0.132360   0.642694   x 
            x  H          142         0.653298   0.132360   0.357306   x 
            x  H          143         0.846702   0.632360   0.642694   x 
            x  H          144         0.153298   0.632360   0.357306   x 
            x  H          145         0.261062   0.163405   0.547078   x 
            x  H          146         0.738938   0.163405   0.452922   x 
            x  H          147         0.761062   0.663405   0.547078   x 
            x  H          148         0.238938   0.663405   0.452922   x 
            x  H          149         0.293445   0.851558   0.462310   x 
            x  H          150         0.706555   0.851558   0.537690   x 
            x  H          151         0.793445   0.351558   0.462310   x 
            x  H          152         0.206555   0.351558   0.537690   x 
            x  H          153         0.234559   0.948496   0.498991   x 
            x  H          154         0.765441   0.948496   0.501009   x 
            x  H          155         0.734559   0.448496   0.498991   x 
            x  H          156         0.265441   0.448496   0.501009   x 
            x  H          157         0.316910   0.911970   0.600919   x 
            x  H          158         0.683090   0.911970   0.399081   x 
            x  H          159         0.816910   0.411970   0.600919   x 
            x  H          160         0.183090   0.411970   0.399081   x 
            x  B            1         0.386531   0.844966   0.212967   x 
            x  B            2         0.613469   0.844966   0.787033   x 
            x  B            3         0.886531   0.344966   0.212967   x 
            x  B            4         0.113469   0.344966   0.787033   x 
            x  C            1         0.275765   0.751789   0.043932   x 
            x  C            2         0.724235   0.751789   0.956068   x 
            x  C            3         0.775765   0.251789   0.043932   x 
            x  C            4         0.224235   0.251789   0.956068   x 
            x  C            5         0.233828   0.759887   0.929118   x 
            x  C            6         0.766172   0.759887   0.070882   x 
            x  C            7         0.733828   0.259887   0.929118   x 
            x  C            8         0.266172   0.259887   0.070882   x 
            x  C            9         0.246732   0.846805   0.858666   x 
            x  C           10         0.753268   0.846805   0.141334   x 
            x  C           11         0.746732   0.346805   0.858666   x 
            x  C           12         0.253268   0.346805   0.141334   x 
            x  C           13         0.302561   0.930153   0.903269   x 
            x  C           14         0.697439   0.930153   0.096731   x 
            x  C           15         0.802561   0.430153   0.903269   x 
            x  C           16         0.197439   0.430153   0.096731   x 
            x  C           17         0.341759   0.914888   0.019230   x 
            x  C           18         0.658241   0.914888   0.980770   x 
            x  C           19         0.841759   0.414888   0.019230   x 
            x  C           20         0.158241   0.414888   0.980770   x 
            x  C           21         0.323260   0.027148   0.846911   x 
            x  C           22         0.676740   0.027148   0.153089   x 
            x  C           23         0.823260   0.527148   0.846911   x 
            x  C           24         0.176740   0.527148   0.153089   x 
            x  C           25         0.379285   0.100443   0.907129   x 
            x  C           26         0.620715   0.100443   0.092871   x 
            x  C           27         0.879285   0.600443   0.907129   x 
            x  C           28         0.120715   0.600443   0.092871   x 
            x  C           29         0.417811   0.084262   0.023452   x 
            x  C           30         0.582189   0.084262   0.976548   x 
            x  C           31         0.917811   0.584262   0.023452   x 
            x  C           32         0.082189   0.584262   0.976548   x 
            x  C           33         0.398939   0.989275   0.080785   x 
            x  C           34         0.601061   0.989275   0.919215   x 
            x  C           35         0.898939   0.489275   0.080785   x 
            x  C           36         0.101061   0.489275   0.919215   x 
            x  C           37         0.550166   0.766961   0.197538   x 
            x  C           38         0.449834   0.766961   0.802462   x 
            x  C           39         0.050166   0.266961   0.197538   x 
            x  C           40         0.949834   0.266961   0.802462   x 
            x  C           41         0.439604   0.727531   0.248828   x 
            x  C           42         0.560396   0.727531   0.751172   x 
            x  C           43         0.939604   0.227531   0.248828   x 
            x  C           44         0.060396   0.227531   0.751172   x 
            x  C           45         0.480459   0.698408   0.166107   x 
            x  C           46         0.519541   0.698408   0.833893   x 
            x  C           47         0.980459   0.198408   0.166107   x 
            x  C           48         0.019541   0.198408   0.833893   x 
            x  C           49         0.489668   0.560176   0.154006   x 
            x  C           50         0.510332   0.560176   0.845994   x 
            x  C           51         0.989668   0.060176   0.154006   x 
            x  C           52         0.010332   0.060176   0.845994   x 
            x  C           53         0.416106   0.500788   0.116456   x 
            x  C           54         0.583894   0.500788   0.883544   x 
            x  C           55         0.916106   0.000788   0.116456   x 
            x  C           56         0.083894   0.000788   0.883544   x 
            x  C           57         0.426939   0.491648   0.244489   x 
            x  C           58         0.573061   0.491648   0.755511   x 
            x  C           59         0.926939   0.991648   0.244489   x 
            x  C           60         0.073061   0.991648   0.755511   x 
            x  C           61         0.405062   0.613295   0.282486   x 
            x  C           62         0.594938   0.613295   0.717514   x 
            x  C           63         0.905062   0.113295   0.282486   x 
            x  C           64         0.094938   0.113295   0.717514   x 
            x  C           65         0.507331   0.485135   0.267226   x 
            x  C           66         0.492669   0.485135   0.732774   x 
            x  C           67         0.007331   0.985135   0.267226   x 
            x  C           68         0.992669   0.985135   0.732774   x 
            x  C           69         0.530346   0.355096   0.251204   x 
            x  C           70         0.469654   0.355096   0.748796   x 
            x  C           71         0.030346   0.855096   0.251204   x 
            x  C           72         0.969654   0.855096   0.748796   x 
            x  C           73         0.557586   0.532527   0.379830   x 
            x  C           74         0.442414   0.532527   0.620170   x 
            x  C           75         0.057586   0.032527   0.379830   x 
            x  C           76         0.942414   0.032527   0.620170   x 
            x  C           77         0.217896   0.935462   0.227331   x 
            x  C           78         0.782104   0.935462   0.772669   x 
            x  C           79         0.717896   0.435462   0.227331   x 
            x  C           80         0.282104   0.435462   0.772669   x 
            x  C           81         0.349966   0.883893   0.305920   x 
            x  C           82         0.650034   0.883893   0.694080   x 
            x  C           83         0.849966   0.383893   0.305920   x 
            x  C           84         0.150034   0.383893   0.694080   x 
            x  C           85         0.292652   0.985634   0.264724   x 
            x  C           86         0.707348   0.985634   0.735276   x 
            x  C           87         0.792652   0.485634   0.264724   x 
            x  C           88         0.207348   0.485634   0.735276   x 
            x  C           89         0.303151   0.089158   0.351600   x 
            x  C           90         0.696850   0.089158   0.648400   x 
            x  C           91         0.803151   0.589158   0.351600   x 
            x  C           92         0.196850   0.589158   0.648400   x 
            x  C           93         0.379448   0.135850   0.382302   x 
            x  C           94         0.620552   0.135850   0.617698   x 
            x  C           95         0.879448   0.635850   0.382302   x 
            x  C           96         0.120552   0.635850   0.617698   x 
            x  C           97         0.398475   0.035054   0.474429   x 
            x  C           98         0.601525   0.035054   0.525571   x 
            x  C           99         0.898475   0.535054   0.474429   x 
            x  C          100         0.101525   0.535054   0.525571   x 
            x  C          101         0.409096   0.915102   0.420158   x 
            x  C          102         0.590904   0.915102   0.579842   x 
            x  C          103         0.909096   0.415102   0.420158   x 
            x  C          104         0.090904   0.415102   0.579842   x 
            x  C          105         0.322785   0.045877   0.478048   x 
            x  C          106         0.677215   0.045877   0.521952   x 
            x  C          107         0.822785   0.545877   0.478048   x 
            x  C          108         0.177215   0.545877   0.521952   x 
            x  C          109         0.316026   0.151367   0.553580   x 
            x  C          110         0.683974   0.151367   0.446420   x 
            x  C          111         0.816026   0.651367   0.553580   x 
            x  C          112         0.183974   0.651367   0.446420   x 
            x  C          113         0.290089   0.933011   0.510676   x 
            x  C          114         0.709911   0.933011   0.489324   x 
            x  C          115         0.790089   0.433011   0.510676   x 
            x  C          116         0.209911   0.433011   0.489324   x 
            x  N            1         0.329184   0.828588   0.087736   x 
            x  N            2         0.670816   0.828588   0.912264   x 
            x  N            3         0.829184   0.328588   0.087736   x 
            x  N            4         0.170816   0.328588   0.912264   x 
            x  O            1         0.426065   0.956319   0.188534   x 
            x  O            2         0.573935   0.956319   0.811466   x 
            x  O            3         0.926065   0.456319   0.188534   x 
            x  O            4         0.073935   0.456319   0.811466   x 
            xxxxxxxxxxxxxxxxxxxxxxxxxxxxxxxxxxxxxxxxxxxxxxxxxxxxxxxxxxxx


                         No user defined ionic velocities

                           -------------------------------
                                   Details of Species
                           -------------------------------

                               Mass of species in AMU
                                    H    1.0079400
                                    B   10.8110000
                                    C   12.0107000
                                    N   14.0067400
                                    O   15.9994000

                          Electric Quadrupole Moment (Barn)
                                    H    0.0028600 Isotope  2
                                    B    0.0405900 Isotope 11
                                    C    0.0332700 Isotope 11
                                    N    0.0204400 Isotope 14
                                    O   -0.0255800 Isotope 17

                          Files used for pseudopotentials:
                                    H 1|0.6|13|15|17|10(qc=8)
                                    B 2|1.2|12|14|16|20:21(qc=8)
                                    C 2|1.4|10|12|13|20:21(qc=7)
                                    N 2|1.1|14|16|18|20:21(qc=7)
                                    O 2|1.1|17|20|23|20:21(qc=8)

                           -------------------------------
                              k-Points For BZ Sampling
                           -------------------------------
                       MP grid size for SCF calculation is  2  4  4
                            with an offset of   0.000  0.000  0.000
                       Number of kpoints used =             8

                           -------------------------------
                               Symmetry and Constraints
                           -------------------------------

                      Cell is a supercell containing 2 primitive cells
                      Maximum deviation from symmetry = 0.273021E-13     ANG

                      Number of symmetry operations   =           4
                      Number of ionic constraints     =           3
                      Point group of crystal =     4: C2, 2, 2
                      Space group of crystal =     5: C2, C 2y

             Set iprint > 1 for details on symmetry rotations/translations

                         Centre of mass is constrained
             Set iprint > 1 for details of linear ionic constraints

                         Number of cell constraints= 6
                         Cell constraints are:  0 0 0 0 0 0

                         External pressure/stress (GPa)
                          0.00000   0.00000   0.00000
                                    0.00000   0.00000
                                              0.00000
 
+---------------- MEMORY AND SCRATCH DISK ESTIMATES PER PROCESS --------------+
|                                                     Memory          Disk    |
| Baseline code, static data and system overhead      794.0 MB         0.0 MB |
| BLAS internal memory storage                          0.0 MB         0.0 MB |
| Model and support data                             3933.5 MB         0.0 MB |
| Electronic energy minimisation requirements        3013.9 MB         0.0 MB |
| Force calculation requirements                      156.6 MB         0.0 MB |
| Stress calculation requirements                     173.0 MB         0.0 MB |
|                                               ----------------------------- |
| Approx. total storage required per process         7741.4 MB         0.0 MB |
|                                                                             |
| Requirements will fluctuate during execution and may exceed these estimates |
+-----------------------------------------------------------------------------+
Calculating finite basis set correction with  3 cut-off energies.
Calculating total energy with cut-off of  615.862 eV.
Calculating approximate eigenstates for fixed initial Hamiltonian
Cut-off for approx. calculation is   89.988 eV
Improving approx. states at cut-off of  462.594 eV
Resetting cut-off to  615.829 eV
Improving states further at cut-off of  615.829 eV
------------------------------------------------------------------------ <-- SCF
SCF loop      Energy                           Energy gain       Timer   <-- SCF
                                               per atom          (sec)   <-- SCF
------------------------------------------------------------------------ <-- SCF
Initial  -1.04959901E+003                                       2590.03  <-- SCF
      1  -2.38535634E+004                    7.91804319E+001    4212.18  <-- SCF
      2  -2.40133569E+004                    5.54838641E-001    5820.04  <-- SCF
      3  -2.40156282E+004                    7.88629791E-003    7414.23  <-- SCF
      4  -2.40157662E+004                    4.79257411E-004    8966.63  <-- SCF
      5  -2.40157830E+004                    5.84223274E-005   10637.66  <-- SCF
      6  -2.40157858E+004                    9.49336137E-006   12390.45  <-- SCF
      7  -2.40157862E+004                    1.63140045E-006   14151.73  <-- SCF
      8  -2.40157863E+004                    2.87198720E-007   15922.37  <-- SCF
------------------------------------------------------------------------ <-- SCF
 
Final energy =  -24015.78632731     eV
(energy not corrected for finite basis set)
 
Calculating total energy with cut-off of  620.862 eV.
------------------------------------------------------------------------ <-- SCF
SCF loop      Energy                           Energy gain       Timer   <-- SCF
                                               per atom          (sec)   <-- SCF
------------------------------------------------------------------------ <-- SCF
Initial  -2.40157863E+004                                      16603.91  <-- SCF
      1  -2.40159710E+004                    6.41261603E-004   18399.64  <-- SCF
      2  -2.40159710E+004                    2.34279658E-008   20172.44  <-- SCF
      3  -2.40159710E+004                    2.88872366E-009   21990.27  <-- SCF
------------------------------------------------------------------------ <-- SCF
 
Final energy =  -24015.97101823     eV
(energy not corrected for finite basis set)
 
Calculating total energy with cut-off of  625.862 eV.
------------------------------------------------------------------------ <-- SCF
SCF loop      Energy                           Energy gain       Timer   <-- SCF
                                               per atom          (sec)   <-- SCF
------------------------------------------------------------------------ <-- SCF
Initial  -2.40159710E+004                                      22676.25  <-- SCF
      1  -2.40161414E+004                    5.91686201E-004   24493.09  <-- SCF
      2  -2.40161414E+004                    5.47699446E-009   26331.62  <-- SCF
      3  -2.40161414E+004                    9.60619930E-011   28478.93  <-- SCF
------------------------------------------------------------------------ <-- SCF
 
Final energy =  -24016.14142547     eV
(energy not corrected for finite basis set)
 
 For future reference: finite basis dEtot/dlog(Ecut) =     -21.962615eV
 Total energy corrected for finite basis set =  -24016.141210 eV

WARNING - fixed cell calculation with finite basis correction ON
        - consider setting FINITE_BASIS_CORR=NONE
        - this will give a rigid shift in energies only.
     NB - this is intended for variable cell calculations with FIXED_NPW=FALSE
 
+---------------- MEMORY AND SCRATCH DISK ESTIMATES PER PROCESS --------------+
|                                                     Memory          Disk    |
| Model and support data                             3918.7 MB         0.0 MB |
| Electronic energy minimisation requirements        3013.9 MB         0.0 MB |
| Geometry minimisation requirements                 3523.7 MB         0.0 MB |
|                                               ----------------------------- |
| Approx. total storage required per process        10456.4 MB         0.0 MB |
|                                                                             |
| Requirements will fluctuate during execution and may exceed these estimates |
+-----------------------------------------------------------------------------+
 

 ******************************** Symmetrised Forces ********************************
 *                                                                                  *
 *                           Cartesian components (eV/A)                            *
 * -------------------------------------------------------------------------------- *
 *                         x                    y                    z              *
 *                                                                                  *
 * H               1     -0.08637             -0.13351              0.13035         *
 * H               2      0.08637             -0.13351             -0.13035         *
 * H               3     -0.08637             -0.13351              0.13035         *
 * H               4      0.08637             -0.13351             -0.13035         *
 * H               5     -0.13024             -0.13117             -0.06341         *
 * H               6      0.13024             -0.13117              0.06341         *
 * H               7     -0.13024             -0.13117             -0.06341         *
 * H               8      0.13024             -0.13117              0.06341         *
 * H               9     -0.04287              0.00819             -0.14417         *
 * H              10      0.04287              0.00819              0.14417         *
 * H              11     -0.04287              0.00819             -0.14417         *
 * H              12      0.04287              0.00819              0.14417         *
 * H              13     -0.02096              0.02086             -0.15187         *
 * H              14      0.02096              0.02086              0.15187         *
 * H              15     -0.02096              0.02086             -0.15187         *
 * H              16      0.02096              0.02086              0.15187         *
 * H              17      0.06662              0.10869             -0.07501         *
 * H              18     -0.06662              0.10869              0.07501         *
 * H              19      0.06662              0.10869             -0.07501         *
 * H              20     -0.06662              0.10869              0.07501         *
 * H              21      0.11111              0.09719              0.07972         *
 * H              22     -0.11111              0.09719             -0.07972         *
 * H              23      0.11111              0.09719              0.07972         *
 * H              24     -0.11111              0.09719             -0.07972         *
 * H              25     -0.04327              0.12872              0.00315         *
 * H              26      0.04327              0.12872             -0.00315         *
 * H              27     -0.04327              0.12872              0.00315         *
 * H              28      0.04327              0.12872             -0.00315         *
 * H              29      0.07718             -0.02032             -0.08312         *
 * H              30     -0.07718             -0.02032              0.08312         *
 * H              31      0.07718             -0.02032             -0.08312         *
 * H              32     -0.07718             -0.02032              0.08312         *
 * H              33      0.01535             -0.06274              0.12489         *
 * H              34     -0.01535             -0.06274             -0.12489         *
 * H              35      0.01535             -0.06274              0.12489         *
 * H              36     -0.01535             -0.06274             -0.12489         *
 * H              37      0.07965              0.06278              0.14736         *
 * H              38     -0.07965              0.06278             -0.14736         *
 * H              39      0.07965              0.06278              0.14736         *
 * H              40     -0.07965              0.06278             -0.14736         *
 * H              41     -0.05409              0.04870             -0.13319         *
 * H              42      0.05409              0.04870              0.13319         *
 * H              43     -0.05409              0.04870             -0.13319         *
 * H              44      0.05409              0.04870              0.13319         *
 * H              45      0.12076             -0.00973             -0.07452         *
 * H              46     -0.12076             -0.00973              0.07452         *
 * H              47      0.12076             -0.00973             -0.07452         *
 * H              48     -0.12076             -0.00973              0.07452         *
 * H              49     -0.09024              0.11210             -0.05958         *
 * H              50      0.09024              0.11210              0.05958         *
 * H              51     -0.09024              0.11210             -0.05958         *
 * H              52      0.09024              0.11210              0.05958         *
 * H              53      0.02416             -0.12706             -0.03835         *
 * H              54     -0.02416             -0.12706              0.03835         *
 * H              55      0.02416             -0.12706             -0.03835         *
 * H              56     -0.02416             -0.12706              0.03835         *
 * H              57     -0.07116             -0.09776              0.04050         *
 * H              58      0.07116             -0.09776             -0.04050         *
 * H              59     -0.07116             -0.09776              0.04050         *
 * H              60      0.07116             -0.09776             -0.04050         *
 * H              61     -0.00566              0.00378              0.14067         *
 * H              62      0.00566              0.00378             -0.14067         *
 * H              63     -0.00566              0.00378              0.14067         *
 * H              64      0.00566              0.00378             -0.14067         *
 * H              65     -0.13794              0.02459             -0.07892         *
 * H              66      0.13794              0.02459              0.07892         *
 * H              67     -0.13794              0.02459             -0.07892         *
 * H              68      0.13794              0.02459              0.07892         *
 * H              69     -0.06721             -0.03434             -0.13593         *
 * H              70      0.06721             -0.03434              0.13593         *
 * H              71     -0.06721             -0.03434             -0.13593         *
 * H              72      0.06721             -0.03434              0.13593         *
 * H              73     -0.04431             -0.05908              0.09416         *
 * H              74      0.04431             -0.05908             -0.09416         *
 * H              75     -0.04431             -0.05908              0.09416         *
 * H              76      0.04431             -0.05908             -0.09416         *
 * H              77      0.14563              0.02261              0.00849         *
 * H              78     -0.14563              0.02261             -0.00849         *
 * H              79      0.14563              0.02261              0.00849         *
 * H              80     -0.14563              0.02261             -0.00849         *
 * H              81     -0.07979              0.16941              0.00530         *
 * H              82      0.07979              0.16941             -0.00530         *
 * H              83     -0.07979              0.16941              0.00530         *
 * H              84      0.07979              0.16941             -0.00530         *
 * H              85      0.12380              0.00046             -0.02423         *
 * H              86     -0.12380              0.00046              0.02423         *
 * H              87      0.12380              0.00046             -0.02423         *
 * H              88     -0.12380              0.00046              0.02423         *
 * H              89     -0.04045             -0.08120              0.07484         *
 * H              90      0.04045             -0.08120             -0.07484         *
 * H              91     -0.04045             -0.08120              0.07484         *
 * H              92      0.04045             -0.08120             -0.07484         *
 * H              93      0.03700             -0.09970             -0.10286         *
 * H              94     -0.03700             -0.09970              0.10286         *
 * H              95      0.03700             -0.09970             -0.10286         *
 * H              96     -0.03700             -0.09970              0.10286         *
 * H              97     -0.06116              0.08286             -0.03339         *
 * H              98      0.06116              0.08286              0.03339         *
 * H              99     -0.06116              0.08286             -0.03339         *
 * H             100      0.06116              0.08286              0.03339         *
 * H             101     -0.05378             -0.07147              0.13826         *
 * H             102      0.05378             -0.07147             -0.13826         *
 * H             103     -0.05378             -0.07147              0.13826         *
 * H             104      0.05378             -0.07147             -0.13826         *
 * H             105     -0.09117             -0.13167              0.01933         *
 * H             106      0.09117             -0.13167             -0.01933         *
 * H             107     -0.09117             -0.13167              0.01933         *
 * H             108      0.09117             -0.13167             -0.01933         *
 * H             109      0.08851              0.07572             -0.13657         *
 * H             110     -0.08851              0.07572              0.13657         *
 * H             111      0.08851              0.07572             -0.13657         *
 * H             112     -0.08851              0.07572              0.13657         *
 * H             113     -0.08473              0.08013             -0.04909         *
 * H             114      0.08473              0.08013              0.04909         *
 * H             115     -0.08473              0.08013             -0.04909         *
 * H             116      0.08473              0.08013              0.04909         *
 * H             117     -0.01743              0.11461              0.06938         *
 * H             118      0.01743              0.11461             -0.06938         *
 * H             119     -0.01743              0.11461              0.06938         *
 * H             120      0.01743              0.11461             -0.06938         *
 * H             121      0.10017             -0.04820             -0.11752         *
 * H             122     -0.10017             -0.04820              0.11752         *
 * H             123      0.10017             -0.04820             -0.11752         *
 * H             124     -0.10017             -0.04820              0.11752         *
 * H             125      0.06891              0.00749              0.10354         *
 * H             126     -0.06891              0.00749             -0.10354         *
 * H             127      0.06891              0.00749              0.10354         *
 * H             128     -0.06891              0.00749             -0.10354         *
 * H             129     -0.02494             -0.09783              0.09301         *
 * H             130      0.02494             -0.09783             -0.09301         *
 * H             131     -0.02494             -0.09783              0.09301         *
 * H             132      0.02494             -0.09783             -0.09301         *
 * H             133      0.18511              0.01143             -0.03740         *
 * H             134     -0.18511              0.01143              0.03740         *
 * H             135      0.18511              0.01143             -0.03740         *
 * H             136     -0.18511              0.01143              0.03740         *
 * H             137      0.08224              0.12755             -0.04777         *
 * H             138     -0.08224              0.12755              0.04777         *
 * H             139      0.08224              0.12755             -0.04777         *
 * H             140     -0.08224              0.12755              0.04777         *
 * H             141      0.03314             -0.04866              0.14049         *
 * H             142     -0.03314             -0.04866             -0.14049         *
 * H             143      0.03314             -0.04866              0.14049         *
 * H             144     -0.03314             -0.04866             -0.14049         *
 * H             145     -0.12450              0.00862             -0.01811         *
 * H             146      0.12450              0.00862              0.01811         *
 * H             147     -0.12450              0.00862             -0.01811         *
 * H             148      0.12450              0.00862              0.01811         *
 * H             149      0.07348             -0.12579             -0.12108         *
 * H             150     -0.07348             -0.12579              0.12108         *
 * H             151      0.07348             -0.12579             -0.12108         *
 * H             152     -0.07348             -0.12579              0.12108         *
 * H             153     -0.11029              0.02727             -0.03185         *
 * H             154      0.11029              0.02727              0.03185         *
 * H             155     -0.11029              0.02727             -0.03185         *
 * H             156      0.11029              0.02727              0.03185         *
 * H             157      0.03310             -0.00415              0.12165         *
 * H             158     -0.03310             -0.00415             -0.12165         *
 * H             159      0.03310             -0.00415              0.12165         *
 * H             160     -0.03310             -0.00415             -0.12165         *
 * B               1      0.02770              0.08095             -0.11167         *
 * B               2     -0.02770              0.08095              0.11167         *
 * B               3      0.02770              0.08095             -0.11167         *
 * B               4     -0.02770              0.08095              0.11167         *
 * C               1      0.14682              0.21806             -0.11504         *
 * C               2     -0.14682              0.21806              0.11504         *
 * C               3      0.14682              0.21806             -0.11504         *
 * C               4     -0.14682              0.21806              0.11504         *
 * C               5      0.19383              0.16962              0.10285         *
 * C               6     -0.19383              0.16962             -0.10285         *
 * C               7      0.19383              0.16962              0.10285         *
 * C               8     -0.19383              0.16962             -0.10285         *
 * C               9      0.07228              0.00325              0.23726         *
 * C              10     -0.07228              0.00325             -0.23726         *
 * C              11      0.07228              0.00325              0.23726         *
 * C              12     -0.07228              0.00325             -0.23726         *
 * C              13      0.00834              0.00515              0.03448         *
 * C              14     -0.00834              0.00515             -0.03448         *
 * C              15      0.00834              0.00515              0.03448         *
 * C              16     -0.00834              0.00515             -0.03448         *
 * C              17     -0.03815             -0.06084              0.05573         *
 * C              18      0.03815             -0.06084             -0.05573         *
 * C              19     -0.03815             -0.06084              0.05573         *
 * C              20      0.03815             -0.06084             -0.05573         *
 * C              21      0.01414             -0.05583              0.24631         *
 * C              22     -0.01414             -0.05583             -0.24631         *
 * C              23      0.01414             -0.05583              0.24631         *
 * C              24     -0.01414             -0.05583             -0.24631         *
 * C              25     -0.12240             -0.19560              0.15187         *
 * C              26      0.12240             -0.19560             -0.15187         *
 * C              27     -0.12240             -0.19560              0.15187         *
 * C              28      0.12240             -0.19560             -0.15187         *
 * C              29     -0.15704             -0.13665             -0.13479         *
 * C              30      0.15704             -0.13665              0.13479         *
 * C              31     -0.15704             -0.13665             -0.13479         *
 * C              32      0.15704             -0.13665              0.13479         *
 * C              33     -0.03092             -0.07402              0.14573         *
 * C              34      0.03092             -0.07402             -0.14573         *
 * C              35     -0.03092             -0.07402              0.14573         *
 * C              36      0.03092             -0.07402             -0.14573         *
 * C              37     -0.26927             -0.15880             -0.05709         *
 * C              38      0.26927             -0.15880              0.05709         *
 * C              39     -0.26927             -0.15880             -0.05709         *
 * C              40      0.26927             -0.15880              0.05709         *
 * C              41     -0.05876             -0.17430             -0.21381         *
 * C              42      0.05876             -0.17430              0.21381         *
 * C              43     -0.05876             -0.17430             -0.21381         *
 * C              44      0.05876             -0.17430              0.21381         *
 * C              45      0.03510             -0.07782              0.26212         *
 * C              46     -0.03510             -0.07782             -0.26212         *
 * C              47      0.03510             -0.07782              0.26212         *
 * C              48     -0.03510             -0.07782             -0.26212         *
 * C              49     -0.24885              0.05035              0.17130         *
 * C              50      0.24885              0.05035             -0.17130         *
 * C              51     -0.24885              0.05035              0.17130         *
 * C              52      0.24885              0.05035             -0.17130         *
 * C              53      0.15432              0.09992              0.33253         *
 * C              54     -0.15432              0.09992             -0.33253         *
 * C              55      0.15432              0.09992              0.33253         *
 * C              56     -0.15432              0.09992             -0.33253         *
 * C              57      0.17172              0.22445             -0.10806         *
 * C              58     -0.17172              0.22445              0.10806         *
 * C              59      0.17172              0.22445             -0.10806         *
 * C              60     -0.17172              0.22445              0.10806         *
 * C              61      0.30405              0.01595             -0.18228         *
 * C              62     -0.30405              0.01595              0.18228         *
 * C              63      0.30405              0.01595             -0.18228         *
 * C              64     -0.30405              0.01595              0.18228         *
 * C              65     -0.01620              0.02529             -0.01129         *
 * C              66      0.01620              0.02529              0.01129         *
 * C              67     -0.01620              0.02529             -0.01129         *
 * C              68      0.01620              0.02529              0.01129         *
 * C              69     -0.13037              0.29992              0.03994         *
 * C              70      0.13037              0.29992             -0.03994         *
 * C              71     -0.13037              0.29992              0.03994         *
 * C              72      0.13037              0.29992             -0.03994         *
 * C              73     -0.11579             -0.10934             -0.28893         *
 * C              74      0.11579             -0.10934              0.28893         *
 * C              75     -0.11579             -0.10934             -0.28893         *
 * C              76      0.11579             -0.10934              0.28893         *
 * C              77      0.27822              0.11113              0.09236         *
 * C              78     -0.27822              0.11113             -0.09236         *
 * C              79      0.27822              0.11113              0.09236         *
 * C              80     -0.27822              0.11113             -0.09236         *
 * C              81      0.09030              0.26100              0.01998         *
 * C              82     -0.09030              0.26100             -0.01998         *
 * C              83      0.09030              0.26100              0.01998         *
 * C              84     -0.09030              0.26100             -0.01998         *
 * C              85     -0.07645             -0.13701              0.24371         *
 * C              86      0.07645             -0.13701             -0.24371         *
 * C              87     -0.07645             -0.13701              0.24371         *
 * C              88      0.07645             -0.13701             -0.24371         *
 * C              89      0.20334             -0.19301              0.09238         *
 * C              90     -0.20334             -0.19301             -0.09238         *
 * C              91      0.20334             -0.19301              0.09238         *
 * C              92     -0.20334             -0.19301             -0.09238         *
 * C              93     -0.24180             -0.26722              0.10257         *
[...]
             C 23  -- C 35                  -0.11        2.83782
             C 21  -- C 33                  -0.11        2.83782
             C 24  -- C 36                  -0.11        2.83782
             C 22  -- C 34                  -0.11        2.83782
             C 55  -- C 71                  -0.06        2.84117
             C 53  -- C 69                  -0.06        2.84117
             C 54  -- C 70                  -0.06        2.84117
             C 56  -- C 72                  -0.06        2.84117
             H 76  -- H 139                 -0.01        2.84182
             H 74  -- H 137                 -0.01        2.84182
             H 75  -- H 140                 -0.01        2.84182
             H 73  -- H 138                 -0.01        2.84182
             H 58  -- H 70                  -0.01        2.84534
             H 57  -- H 69                  -0.01        2.84534
             H 59  -- H 71                  -0.01        2.84534
             H 60  -- H 72                  -0.01        2.84534
             H 41  -- C 17                  -0.02        2.84590
             H 42  -- C 18                  -0.02        2.84590
             H 44  -- C 20                  -0.02        2.84590
             H 43  -- C 19                  -0.02        2.84590
             H 102 -- C 90                  -0.03        2.84609
             H 104 -- C 92                  -0.03        2.84609
             H 101 -- C 89                  -0.03        2.84610
             H 103 -- C 91                  -0.03        2.84610
             H 14  -- C 10                  -0.04        2.84925
             H 13  -- C 9                   -0.04        2.84925
             H 15  -- C 11                  -0.04        2.84925
             H 16  -- C 12                  -0.04        2.84925
             H 101 -- C 81                  -0.03        2.85118
             H 102 -- C 82                  -0.03        2.85118
             H 104 -- C 84                  -0.03        2.85118
             H 103 -- C 83                  -0.03        2.85118
             H 36  -- C 44                  -0.03        2.85315
             H 33  -- C 41                  -0.03        2.85315
             H 35  -- C 43                  -0.03        2.85315
             H 34  -- C 42                  -0.03        2.85315
             H 10  -- C 22                  -0.04        2.85329
             H 12  -- C 24                  -0.04        2.85329
             H 9   -- C 21                  -0.04        2.85329
             H 11  -- C 23                  -0.04        2.85329
             C 95  -- C 111                 -0.06        2.85525
             C 94  -- C 110                 -0.06        2.85525
             C 93  -- C 109                 -0.06        2.85525
             C 96  -- C 112                 -0.06        2.85525
             H 129 -- C 113                 -0.02        2.85544
             H 132 -- C 116                 -0.02        2.85544
             H 130 -- C 114                 -0.02        2.85544
             H 131 -- C 115                 -0.02        2.85544
             H 40  -- C 76                  -0.04        2.85849
             H 38  -- C 74                  -0.04        2.85849
             H 39  -- C 75                  -0.04        2.85849
             H 37  -- C 73                  -0.04        2.85849
             H 124 -- C 84                  -0.01        2.86190
             H 121 -- C 81                  -0.01        2.86190
             H 122 -- C 82                  -0.01        2.86190
             H 123 -- C 83                  -0.01        2.86190
             H 93  -- N 1                   -0.02        2.86405
             H 95  -- N 3                   -0.02        2.86405
             H 94  -- N 2                   -0.02        2.86405
             H 96  -- N 4                   -0.02        2.86405
             H 143 -- C 99                  -0.04        2.86440
             H 144 -- C 100                 -0.04        2.86440
             H 142 -- C 98                  -0.04        2.86440
             H 141 -- C 97                  -0.04        2.86440
             C 16  -- C 32                  -0.09        2.86614
             C 13  -- C 29                  -0.09        2.86614
             C 15  -- C 31                  -0.09        2.86614
             C 14  -- C 30                  -0.09        2.86614
             H 16  -- H 148                 -0.01        2.87511
             H 14  -- H 146                 -0.01        2.87511
             H 15  -- H 147                 -0.01        2.87511
             H 13  -- H 145                 -0.01        2.87511
             H 40  -- C 84                  -0.03        2.87518
             H 37  -- C 81                  -0.03        2.87518
             H 39  -- C 83                  -0.03        2.87518
             H 38  -- C 82                  -0.03        2.87518
             H 150 -- C 98                  -0.03        2.88077
             H 149 -- C 97                  -0.03        2.88077
             H 152 -- C 100                 -0.03        2.88077
             H 151 -- C 99                  -0.03        2.88077
             H 20  -- H 71                  -0.01        2.88279
             H 18  -- H 69                  -0.01        2.88279
             H 19  -- H 72                  -0.01        2.88279
             H 17  -- H 70                  -0.01        2.88279
             H 2   -- H 106                 -0.00        2.88300
             H 4   -- H 108                 -0.00        2.88300
             H 1   -- H 105                 -0.00        2.88300
             H 3   -- H 107                 -0.00        2.88300
             H 81  -- C 45                  -0.01        2.88308
             H 83  -- C 47                  -0.01        2.88308
             H 82  -- C 46                  -0.01        2.88308
             H 84  -- C 48                  -0.01        2.88308
             H 10  -- H 119                 -0.01        2.88948
             H 12  -- H 117                 -0.01        2.88948
             H 11  -- H 118                 -0.01        2.88948
             H 9   -- H 120                 -0.01        2.88948
             H 2   -- H 15                  -0.01        2.89175
             H 4   -- H 13                  -0.01        2.89175
             H 3   -- H 14                  -0.01        2.89175
             H 1   -- H 16                  -0.01        2.89175
             H 75  -- C 59                  -0.04        2.89473
             H 73  -- C 57                  -0.04        2.89473
             H 76  -- C 60                  -0.04        2.89473
             H 74  -- C 58                  -0.04        2.89473
             C 81  -- C 93                  -0.04        2.89919
             C 84  -- C 96                  -0.04        2.89919
             C 83  -- C 95                  -0.04        2.89919
             C 82  -- C 94                  -0.04        2.89919
             H 110 -- C 7                   -0.03        2.90095
             H 112 -- C 5                   -0.03        2.90095
             H 109 -- C 8                   -0.03        2.90095
             H 111 -- C 6                   -0.03        2.90095
             H 125 -- H 137                 -0.00        2.90372
             H 126 -- H 138                 -0.00        2.90372
             H 128 -- H 140                 -0.00        2.90372
             H 127 -- H 139                 -0.00        2.90372
             H 82  -- C 58                  -0.03        2.90485
             H 84  -- C 60                  -0.03        2.90485
             H 83  -- C 59                  -0.03        2.90485
             H 81  -- C 57                  -0.03        2.90485
             H 49  -- C 41                  -0.01        2.90699
             H 51  -- C 43                  -0.01        2.90699
             H 50  -- C 42                  -0.01        2.90699
             H 52  -- C 44                  -0.01        2.90699
             H 108 -- C 44                  -0.03        2.90906
             H 106 -- C 42                  -0.03        2.90906
             H 107 -- C 43                  -0.03        2.90906
             H 105 -- C 41                  -0.03        2.90906
             H 42  -- O 2                   -0.00        2.91588
             H 41  -- O 1                   -0.00        2.91588
             H 44  -- O 4                   -0.00        2.91588
             H 43  -- O 3                   -0.00        2.91588
             C 43  -- C 55                  -0.04        2.91721
             C 41  -- C 53                  -0.04        2.91721
             C 44  -- C 56                  -0.04        2.91721
             C 42  -- C 54                  -0.04        2.91721
             H 132 -- C 108                 -0.03        2.91756
             H 129 -- C 105                 -0.03        2.91756
             H 131 -- C 107                 -0.03        2.91756
             H 130 -- C 106                 -0.03        2.91756
             H 80  -- C 52                  -0.03        2.92979
             H 78  -- C 50                  -0.03        2.92979
             H 79  -- C 51                  -0.03        2.92979
             H 77  -- C 49                  -0.03        2.92979
             H 152 -- C 80                  -0.02        2.93108
             H 151 -- C 79                  -0.02        2.93108
             H 149 -- C 77                  -0.02        2.93108
             H 150 -- C 78                  -0.02        2.93108
             C 44  -- C 68                  -0.05        2.93201
             C 41  -- C 65                  -0.05        2.93201
             C 42  -- C 66                  -0.05        2.93201
             C 43  -- C 67                  -0.05        2.93201
             H 19  -- H 94                  -0.01        2.93202
             H 17  -- H 96                  -0.01        2.93202
             H 20  -- H 93                  -0.01        2.93202
             H 18  -- H 95                  -0.01        2.93202
             H 5   -- C 32                  -0.02        2.93609
             H 8   -- C 29                  -0.02        2.93609
             H 6   -- C 31                  -0.02        2.93609
             H 7   -- C 30                  -0.02        2.93609
             H 123 -- H 127                  0.01        2.93690
             H 121 -- H 125                  0.01        2.93690
             H 124 -- H 128                  0.01        2.93690
             H 122 -- H 126                  0.01        2.93690
             H 108 -- H 136                  0.03        2.93769
             H 106 -- H 134                  0.03        2.93769
             H 107 -- H 135                  0.03        2.93770
             H 105 -- H 133                  0.03        2.93770
             H 46  -- H 50                   0.01        2.94121
             H 48  -- H 52                   0.01        2.94121
             H 47  -- H 51                   0.01        2.94122
             H 45  -- H 49                   0.01        2.94122
             H 51  -- H 59                   0.01        2.94602
             H 49  -- H 57                   0.01        2.94602
             H 52  -- H 60                   0.01        2.94602
             H 50  -- H 58                   0.01        2.94602
             H 108 -- H 112                  0.03        2.94658
             H 107 -- H 111                  0.03        2.94658
             H 106 -- H 110                  0.03        2.94658
             H 105 -- H 109                  0.03        2.94658
             H 65  -- N 1                   -0.00        2.94941
             H 67  -- N 3                   -0.00        2.94941
             H 68  -- N 4                   -0.00        2.94941
             H 66  -- N 2                   -0.00        2.94941
             H 2   -- B 2                   -0.05        2.94983
             H 4   -- B 4                   -0.05        2.94983
             H 3   -- B 3                   -0.05        2.94983
             H 1   -- B 1                   -0.05        2.94983
             H 5   -- C 36                  -0.02        2.95036
             H 8   -- C 33                  -0.02        2.95036
             H 6   -- C 35                  -0.02        2.95036
             H 7   -- C 34                  -0.02        2.95036
             H 64  -- C 76                  -0.01        2.95298
             H 62  -- C 74                  -0.01        2.95298
             H 61  -- C 73                  -0.01        2.95298
             H 63  -- C 75                  -0.01        2.95298
             H 146 -- C 90                  -0.03        2.95533
             H 148 -- C 92                  -0.03        2.95533
             H 145 -- C 89                  -0.03        2.95534
             H 147 -- C 91                  -0.03        2.95534
             H 114 -- H 122                  0.01        2.95557
             H 115 -- H 123                  0.01        2.95557
             H 116 -- H 124                  0.01        2.95557
             H 113 -- H 121                  0.01        2.95557
             C 81  -- C 105                 -0.05        2.95743
             C 84  -- C 108                 -0.05        2.95743
             C 83  -- C 107                 -0.05        2.95743
             C 82  -- C 106                 -0.05        2.95743
             H 132 -- H 160                 -0.01        2.96573
             H 130 -- H 158                 -0.01        2.96573
             H 131 -- H 159                 -0.01        2.96573
             H 129 -- H 157                 -0.01        2.96573
             H 64  -- C 68                  -0.03        2.96586
             H 62  -- C 66                  -0.03        2.96586
             H 61  -- C 65                  -0.03        2.96586
             H 63  -- C 67                  -0.03        2.96586
             H 108 -- N 4                   -0.01        2.96818
             H 106 -- N 2                   -0.01        2.96818
             H 105 -- N 1                   -0.01        2.96818
             H 107 -- N 3                   -0.01        2.96818
             H 150 -- C 90                  -0.02        2.97172
             H 152 -- C 92                  -0.02        2.97172
             H 149 -- C 89                  -0.02        2.97172
             H 151 -- C 91                  -0.02        2.97172
             H 39  -- H 43                   0.04        2.97429
             H 40  -- H 44                   0.04        2.97429
             H 38  -- H 42                   0.04        2.97429
             H 37  -- H 41                   0.04        2.97429
             H 158 -- C 98                  -0.02        2.97434
             H 160 -- C 100                 -0.02        2.97434
             H 159 -- C 99                  -0.02        2.97434
             H 157 -- C 97                  -0.02        2.97434
             H 40  -- H 68                   0.04        2.97465
             H 37  -- H 65                   0.04        2.97465
             H 38  -- H 66                   0.04        2.97465
             H 39  -- H 67                   0.04        2.97465
             H 145 -- H 157                 -0.00        2.97473
             H 148 -- H 160                 -0.00        2.97473
             H 146 -- H 158                 -0.00        2.97473
             H 147 -- H 159                 -0.00        2.97473
             C 102 -- C 114                 -0.05        2.98095
             C 104 -- C 116                 -0.05        2.98095
             C 103 -- C 115                 -0.05        2.98095
             C 101 -- C 113                 -0.05        2.98095
             H 68  -- C 84                  -0.02        2.98242
             H 67  -- C 83                  -0.02        2.98242
             H 66  -- C 82                  -0.02        2.98242
             H 65  -- C 81                  -0.02        2.98242
             H 79  -- C 77                  -0.03        2.98289
             H 77  -- C 79                  -0.03        2.98289
             H 80  -- C 78                  -0.03        2.98289
             H 78  -- C 80                  -0.03        2.98289
             H 14  -- H 67                  -0.01        2.98317
             H 15  -- H 66                  -0.01        2.98317
             H 13  -- H 68                  -0.01        2.98317
             H 16  -- H 65                  -0.01        2.98317
             H 41  -- C 33                  -0.01        2.98373
             H 42  -- C 34                  -0.01        2.98373
             H 43  -- C 35                  -0.01        2.98373
             H 44  -- C 36                  -0.01        2.98373
             H 80  -- H 92                  -0.00        2.98469
             H 78  -- H 90                  -0.00        2.98469
             H 77  -- H 89                  -0.00        2.98469
             H 79  -- H 91                  -0.00        2.98469
             H 79  -- H 140                 -0.01        2.98929
             H 77  -- H 138                 -0.01        2.98929
             H 80  -- H 139                 -0.01        2.98929
             H 78  -- H 137                 -0.01        2.98929
             H 91  -- H 92                  -0.01        2.99243
             H 89  -- H 90                  -0.01        2.99243
             H 77  -- H 142                 -0.01        2.99360
             H 80  -- H 143                 -0.01        2.99360
             H 79  -- H 144                 -0.01        2.99360
             H 78  -- H 141                 -0.01        2.99360
             H 81  -- C 37                  -0.02        2.99436
             H 83  -- C 39                  -0.02        2.99436
             H 82  -- C 38                  -0.02        2.99436
             H 84  -- C 40                  -0.02        2.99436
             H 106 -- C 114                 -0.03        2.99447
             H 105 -- C 113                 -0.03        2.99447
             H 107 -- C 115                 -0.03        2.99447
             H 108 -- C 116                 -0.03        2.99447
             H 91  -- C 59                  -0.02        2.99526
             H 90  -- C 58                  -0.02        2.99526
             H 92  -- C 60                  -0.02        2.99526
             H 89  -- C 57                  -0.02        2.99526
             H 138 -- H 151                 -0.00        2.99661
             H 140 -- H 149                 -0.00        2.99661
             H 137 -- H 152                 -0.00        2.99661
             H 139 -- H 150                 -0.00        2.99661
             H 81  -- C 49                  -0.02        2.99754
             H 82  -- C 50                  -0.02        2.99754
             H 83  -- C 51                  -0.02        2.99754
             H 84  -- C 52                  -0.02        2.99754
======================================================================


Writing analysis data to 8-HQ-ipc2-B_opt.castep_bin

Writing model to 8-HQ-ipc2-B_opt.check
 
 A BibTeX formatted list of references used in this run has been written to 
 8-HQ-ipc2-B_opt.bib
 
Initialisation time =    136.39 s
Calculation time    = 292775.49 s
Finalisation time   =     22.43 s
Total time          = 292934.32 s
Peak Memory Use     = 12133948 kB
 
Overall parallel efficiency rating: Excellent (96%)
 
Data was distributed by:-
k-point (8-way); efficiency rating: Excellent (96%)
