 +-------------------------------------------------+
 |                                                 |
 |      CCC   AA    SSS  TTTTT  EEEEE  PPPP        |
 |     C     A  A  S       T    E      P   P       |
 |     C     AAAA   SS     T    EEE    PPPP        |
 |     C     A  A     S    T    E      P           |
 |      CCC  A  A  SSS     T    EEEEE  P           |
 |                                                 |
 +-------------------------------------------------+
 |                                                 |
 | Welcome to Academic Release CASTEP version 22.11|
 | Ab Initio Total Energy Program                  |
 |                                                 |
 | Authors:                                        |
 | M. Segall, M. Probert, C. Pickard, P. Hasnip,   |
 | S. Clark, K. Refson, J. R. Yates, M. Payne      |
 |                                                 |
 | Contributors:                                   |
 | P. Lindan, P. Haynes, J. White, V. Milman,      |
 | N. Govind, M. Gibson, P. Tulip, V. Cocula,      |
 | B. Montanari, D. Quigley, M. Glover,            |
 | L. Bernasconi, A. Perlov, M. Plummer,           |
 | E. McNellis, J. Meyer, J. Gale, D. Jochym       |
 | J. Aarons, B. Walker, R. Gillen, D. Jones       |
 | T. Green, I. J. Bush, C. J. Armstrong,          |
 | E. J. Higgins, E. L. Brown, M. S. McFly,        |
 | J. Wilkins, B-C. Shih, P. J. P. Byrne,          |
 | R. J. Maurer, J. C. Womack, J. Dziedzic,        |
 | A. Bartok-Partay, L. LeBlanc, T. K. Stenczel,   |
 | J. Kermode, S. Sturniolo, B. Shi, B. Durham     |
 | M. Evans, M. J. Smith                           |
 |                                                 |
 | Copyright (c) 2000 - 2021                       |
 |                                                 |
 |     Distributed under license from Cambridge    |
 |     Enterprise for academic use only.           |
 |                                                 |
 | Please cite                                     |
 |                                                 |
 |     "First principles methods using CASTEP"     |
 |                                                 |
 |         Zeitschrift fuer Kristallographie       |
 |           220(5-6) pp. 567-570 (2005)           |
 |                                                 |
 | S. J. Clark, M. D. Segall, C. J. Pickard,       |
 | P. J. Hasnip, M. J. Probert, K. Refson,         |
 | M. C. Payne                                     |
 |                                                 |
 |       in all publications arising from          |
 |              your use of CASTEP                 |
 |                                                 |
 +-------------------------------------------------+
 |                                                 |
 |              http://www.castep.org              |
 |                                                 |
 +-------------------------------------------------+



 Compiled for linux_x86_64_gfortran10 on Tue, 24 Oct 2023 15:07:27 -0400
 from code version b807d1bba+  Castep221_branch  Wed Sep 14 11:18:35 2022 +0100
 Compiler: GNU Fortran 11.4.0; Optimisation: coverage
 MATHLIBS: openblas (LAPACK version 3.10.0)
 FFT Lib : fftw3 version fftw-3.3.8-sse2-avx
 Fundamental constants values: CODATA 2014

 Run started: Sun, 29 Oct 2023 13:39:45 -0400
 +-------------------------------------------------+
 |                                                 |
 |      CCC   AA    SSS  TTTTT  EEEEE  PPPP        |
 |     C     A  A  S       T    E      P   P       |
 |     C     AAAA   SS     T    EEE    PPPP        |
 |     C     A  A     S    T    E      P           |
 |      CCC  A  A  SSS     T    EEEEE  P           |
 |                                                 |
 +-------------------------------------------------+
 |                                                 |
 | Welcome to Academic Release CASTEP version 22.11|
 | Ab Initio Total Energy Program                  |
 |                                                 |
 | Authors:                                        |
 | M. Segall, M. Probert, C. Pickard, P. Hasnip,   |
 | S. Clark, K. Refson, J. R. Yates, M. Payne      |
 |                                                 |
 | Contributors:                                   |
 | P. Lindan, P. Haynes, J. White, V. Milman,      |
 | N. Govind, M. Gibson, P. Tulip, V. Cocula,      |
 | B. Montanari, D. Quigley, M. Glover,            |
 | L. Bernasconi, A. Perlov, M. Plummer,           |
 | E. McNellis, J. Meyer, J. Gale, D. Jochym       |
 | J. Aarons, B. Walker, R. Gillen, D. Jones       |
 | T. Green, I. J. Bush, C. J. Armstrong,          |
 | E. J. Higgins, E. L. Brown, M. S. McFly,        |
 | J. Wilkins, B-C. Shih, P. J. P. Byrne,          |
 | R. J. Maurer, J. C. Womack, J. Dziedzic,        |
 | A. Bartok-Partay, L. LeBlanc, T. K. Stenczel,   |
 | J. Kermode, S. Sturniolo, B. Shi, B. Durham     |
 | M. Evans, M. J. Smith                           |
 |                                                 |
 | Copyright (c) 2000 - 2021                       |
 |                                                 |
 |     Distributed under license from Cambridge    |
 |     Enterprise for academic use only.           |
 |                                                 |
 | Please cite                                     |
 |                                                 |
 |     "First principles methods using CASTEP"     |
 |                                                 |
 |         Zeitschrift fuer Kristallographie       |
 |           220(5-6) pp. 567-570 (2005)           |
 |                                                 |
 | S. J. Clark, M. D. Segall, C. J. Pickard,       |
 | P. J. Hasnip, M. J. Probert, K. Refson,         |
 | M. C. Payne                                     |
 |                                                 |
 |       in all publications arising from          |
 |              your use of CASTEP                 |
 |                                                 |
 +-------------------------------------------------+
 |                                                 |
 |              http://www.castep.org              |
 |                                                 |
 +-------------------------------------------------+



 Compiled for linux_x86_64_gfortran10 on Tue, 24 Oct 2023 15:07:27 -0400
 from code version b807d1bba+  Castep221_branch  Wed Sep 14 11:18:35 2022 +0100
 Compiler: GNU Fortran 11.4.0; Optimisation: coverage
 MATHLIBS: openblas (LAPACK version 3.10.0)
 FFT Lib : fftw3 version fftw-3.3.8-sse2-avx
 Fundamental constants values: CODATA 2014

 Run started: Sun, 29 Oct 2023 13:41:10 -0400

 Atomic calculation performed for H: 1s1

 Converged in 41 iterations to an ae energy of -12.242 eV

   ============================================================                
   | Pseudopotential Report - Date of generation 29-10-2023   |                
   ------------------------------------------------------------                
   | Element: H Ionic charge:  1.00 Level of theory: PBESOL   |                
   | Atomic Solver: Koelling-Harmon                           |                
   |                                                          |                
   |               Reference Electronic Structure             |                
   |         Orbital         Occupation         Energy        |                
   |            1s              1.000           -0.233        |                
   |                                                          |                
   |                 Pseudopotential Definition               |                
   |        Beta     l      e      Rc     scheme   norm       |                
   |          1      0   -0.233   0.599     qc      0         |                
   |          2      0    0.250   0.599     qc      0         |                
   |         loc     1    0.000   0.599     pn      0         |                
   |                                                          |                
   | Augmentation charge Rinner = 0.421                       |                
   | No partial core correction                               |                
   ------------------------------------------------------------                
   | "1|0.6|13|15|17|10(qc=8)"                                |                
   ------------------------------------------------------------                
   |      Author: Chris J. Pickard, Cambridge University      |                
   ============================================================                

 Atomic calculation performed for C: 1s2 2s2 2p2

 Converged in 55 iterations to an ae energy of -1022.967 eV

   ============================================================                
   | Pseudopotential Report - Date of generation 29-10-2023   |                
   ------------------------------------------------------------                
   | Element: C Ionic charge:  4.00 Level of theory: PBESOL   |                
   | Atomic Solver: Koelling-Harmon                           |                
   |                                                          |                
   |               Reference Electronic Structure             |                
   |         Orbital         Occupation         Energy        |                
   |            2s              2.000           -0.502        |                
   |            2p              2.000           -0.192        |                
   |                                                          |                
   |                 Pseudopotential Definition               |                
   |        Beta     l      e      Rc     scheme   norm       |                
   |          1      0   -0.502   1.395     qc      0         |                
   |          2      0    0.250   1.395     qc      0         |                
   |          3      1   -0.192   1.395     qc      0         |                
   |          4      1    0.250   1.395     qc      0         |                
   |         loc     2    0.000   1.395     pn      0         |                
   |                                                          |                
   | Augmentation charge Rinner = 0.983                       |                
   | Partial core correction Rc = 0.983                       |                
   ------------------------------------------------------------                
   | "2|1.4|10|12|13|20:21(qc=7)"                             |                
   ------------------------------------------------------------                
   |      Author: Chris J. Pickard, Cambridge University      |                
   ============================================================                

 Atomic calculation performed for N: 1s2 2s2 2p3

 Converged in 60 iterations to an ae energy of -1475.991 eV

   ============================================================                
   | Pseudopotential Report - Date of generation 29-10-2023   |                
   ------------------------------------------------------------                
   | Element: N Ionic charge:  5.00 Level of theory: PBESOL   |                
   | Atomic Solver: Koelling-Harmon                           |                
   |                                                          |                
   |               Reference Electronic Structure             |                
   |         Orbital         Occupation         Energy        |                
   |            2s              2.000           -0.678        |                
   |            2p              3.000           -0.259        |                
   |                                                          |                
   |                 Pseudopotential Definition               |                
   |        Beta     l      e      Rc     scheme   norm       |                
   |          1      0   -0.678   1.100     qc      0         |                
   |          2      0    0.250   1.100     qc      0         |                
   |          3      1   -0.259   1.100     qc      0         |                
   |          4      1    0.250   1.100     qc      0         |                
   |         loc     2    0.000   1.100     pn      0         |                
   |                                                          |                
   | Augmentation charge Rinner = 0.769                       |                
   | Partial core correction Rc = 0.769                       |                
   ------------------------------------------------------------                
   | "2|1.1|14|16|18|20:21(qc=7)"                             |                
   ------------------------------------------------------------                
   |      Author: Chris J. Pickard, Cambridge University      |                
   ============================================================                

 Atomic calculation performed for O: 1s2 2s2 2p4

 Converged in 57 iterations to an ae energy of -2034.019 eV

   ============================================================                
   | Pseudopotential Report - Date of generation 29-10-2023   |                
   ------------------------------------------------------------                
   | Element: O Ionic charge:  6.00 Level of theory: PBESOL   |                
   | Atomic Solver: Koelling-Harmon                           |                
   |                                                          |                
   |               Reference Electronic Structure             |                
   |         Orbital         Occupation         Energy        |                
   |            2s              2.000           -0.875        |                
   |            2p              4.000           -0.330        |                
   |                                                          |                
   |                 Pseudopotential Definition               |                
   |        Beta     l      e      Rc     scheme   norm       |                
   |          1      0   -0.875   1.100     qc      0         |                
   |          2      0    0.250   1.100     qc      0         |                
   |          3      1   -0.330   1.100     qc      0         |                
   |          4      1    0.250   1.100     qc      0         |                
   |         loc     2    0.000   1.100     pn      0         |                
   |                                                          |                
   | Augmentation charge Rinner = 0.769                       |                
   | Partial core correction Rc = 0.769                       |                
   ------------------------------------------------------------                
   | "2|1.1|17|20|23|20:21(qc=8)"                             |                
   ------------------------------------------------------------                
   |      Author: Chris J. Pickard, Cambridge University      |                
   ============================================================                

 Pseudo atomic calculation performed for H 1s1

 Converged in 14 iterations to a total energy of -12.2361 eV

 Pseudo atomic calculation performed for C 2s2 2p2

 Converged in 17 iterations to a total energy of -147.8638 eV

 Pseudo atomic calculation performed for N 2s2 2p3

 Converged in 20 iterations to a total energy of -267.1659 eV

 Pseudo atomic calculation performed for O 2s2 2p4

 Converged in 14 iterations to a total energy of -430.8367 eV
 Calculation parallelised over 6 processes.
 Data is distributed by G-vector(2-way) and k-point(3-way)

 ************************************ Title ************************************
 

 ***************************** General Parameters ******************************
  
 output verbosity                               : normal  (1)
 write checkpoint data to                       : glycine_cif_1169354.check
 type of calculation                            : geometry optimization
 stress calculation                             : off
 density difference calculation                 : off
 electron localisation func (ELF) calculation   : off
 Hirshfeld analysis                             : off
 polarisation (Berry phase) analysis            : off
 molecular orbital projected DOS                : off
 deltaSCF calculation                           : off
 unlimited duration calculation
 timing information                             : on
 memory usage estimate                          : on
 write extra output files                       : on
 write final potential to formatted file        : off
 write final density to formatted file          : off
 write structure in CELL formatted file         : on
 write BibTeX reference list                    : off
 write OTFG pseudopotential files               : on
 write electrostatic potential file             : on
 write bands file                               : on
 checkpoint writing                             : both castep_bin and check files
  
 output         length unit                     : A
 output           mass unit                     : amu
 output           time unit                     : ps
 output         charge unit                     : e
 output           spin unit                     : hbar/2
 output         energy unit                     : eV
 output          force unit                     : eV/A
 output       velocity unit                     : A/ps
 output       pressure unit                     : GPa
 output     inv_length unit                     : 1/A
 output      frequency unit                     : cm-1
 output force constant unit                     : eV/A**2
 output         volume unit                     : A**3
 output   IR intensity unit                     : (D/A)**2/amu
 output         dipole unit                     : D
 output         efield unit                     : eV/A/e
 output        entropy unit                     : J/mol/K
 output    efield chi2 unit                     : pm/V
  
 wavefunctions paging                           : none
 random number generator seed                   : randomised (134110785)
 data distribution                              : optimal for this architecture
 optimization strategy                          : maximize speed(+++)

 *********************** Exchange-Correlation Parameters ***********************
  
 using functional                               : PBE for solids (2008)
 relativistic treatment                         : Koelling-Harmon
 DFT+D: Semi-empirical dispersion correction    : off

 ************************* Pseudopotential Parameters **************************
  
 pseudopotential representation                 : reciprocal space
 <beta|phi> representation                      : reciprocal space
 spin-orbit coupling                            : off

 **************************** Basis Set Parameters *****************************
  
 basis set accuracy                             : FINE
 plane wave basis set cut-off                   :   625.8619   eV
 size of standard grid                          :     1.7500
 size of   fine   gmax                          :    22.4293   1/A
 finite basis set correction                    : none

 **************************** Electronic Parameters ****************************
  
 number of  electrons                           :  120.0    
 net charge of system                           :  0.000    
 treating system as non-spin-polarized
 number of bands                                :         60

 ********************* Electronic Minimization Parameters **********************
  
 Method: Treating system as non-metallic,
         and number of  SD  steps               :          1
         and number of  CG  steps               :          4
  
 total energy / atom convergence tol.           : 0.1000E-04   eV
 max force / atom convergence tol.              : ignored
 convergence tolerance window                   :          3   cycles
 max. number of SCF cycles                      :        100
 periodic dipole correction                     : NONE

 *********************** Population Analysis Parameters ************************
  
 Population analysis with cutoff                :  3.000       A
 Population analysis output                     : summary and pdos components

 ********************** Geometry Optimization Parameters ***********************
  
 optimization method                            : LBFGS
 max. no. of LBFGS updates                      : unbounded
 variable cell method                           : fixed basis quality
 max. number of steps                           :        100
 estimated bulk modulus                         :  500.0       GPa
 estimated <frequency>                          :  1668.       cm-1
 geom line minimiser                            : on
 with line minimiser tolerance                  :     0.4000
 total energy convergence tolerance             : 0.2000E-04   eV/atom
        max ionic |force| tolerance             : 0.5000E-01   eV/A
 max ionic |displacement| tolerance             : 0.1000E-02   A
   max |stress component| tolerance             : 0.1000       GPa
 convergence tolerance window                   :          2   steps
 backup results every                           : 2147483647   steps
 write geom trajectory file                     : on

 *******************************************************************************
  

                           -------------------------------
                                      Unit Cell
                           -------------------------------
        Real Lattice(A)                      Reciprocal Lattice(1/A)
     5.1020000     0.0000000     0.0000000        1.231514172   0.000000000   0.490079011
     0.0000000    11.9709000     0.0000000        0.000000000   0.524871589   0.000000000
    -2.0178929     0.0000000     5.0707410        0.000000000   0.000000000   1.239105940

                       Lattice parameters(A)       Cell Angles
                    a =      5.102000          alpha =   90.000000
                    b =     11.970900          beta  =  111.700000
                    c =      5.457500          gamma =   90.000000

                       Current cell volume =           309.698204       A**3
                                   density =             0.969546   AMU/A**3
                                           =             1.609968     g/cm^3

                           -------------------------------
                                     Cell Contents
                           -------------------------------
                         Total number of ions in cell =   40
                      Total number of species in cell =    4
                        Max number of any one species =   20

            xxxxxxxxxxxxxxxxxxxxxxxxxxxxxxxxxxxxxxxxxxxxxxxxxxxxxxxxxxxx
            x  Element    Atom        Fractional coordinates of atoms  x
            x            Number           u          v          w      x
            x----------------------------------------------------------x
            x  H            1         0.286000   0.100000  -0.430000   x 
            x  H            2         0.214000   0.600000   0.930000   x 
            x  H            3         0.714000   0.900000   0.430000   x 
            x  H            4         0.786000   0.400000   0.070000   x 
            x  H            5         0.457000   0.119000  -0.163000   x 
            x  H            6         0.043000   0.619000   0.663000   x 
            x  H            7         0.543000   0.881000   0.163000   x 
            x  H            8         0.957000   0.381000   0.337000   x 
            x  H            9         0.298000   0.020000  -0.237000   x 
            x  H           10         0.202000   0.520000   0.737000   x 
            x  H           11         0.702000   0.980000   0.237000   x 
            x  H           12         0.798000   0.480000   0.263000   x 
            x  H           13         0.080000   0.220000  -0.229000   x 
            x  H           14         0.420000   0.720000   0.729000   x 
            x  H           15         0.920000   0.780000   0.229000   x 
            x  H           16         0.580000   0.280000   0.271000   x 
            x  H           17        -0.102000   0.118000  -0.329000   x 
            x  H           18         0.602000   0.618000   0.829000   x 
            x  H           19         0.102000   0.882000   0.329000   x 
            x  H           20         0.398000   0.382000   0.171000   x 
            x  C            1         0.075420   0.124780   0.066050   x 
            x  C            2         0.424580   0.624780   0.433950   x 
            x  C            3         0.924580   0.875220   0.933950   x 
            x  C            4         0.575420   0.375220   0.566050   x 
            x  C            5         0.065360   0.144990  -0.212890   x 
            x  C            6         0.434640   0.644990   0.712890   x 
            x  C            7         0.934640   0.855010   0.212890   x 
            x  C            8         0.565360   0.355010   0.287110   x 
            x  N            1         0.301350   0.089800  -0.258870   x 
            x  N            2         0.198650   0.589800   0.758870   x 
            x  N            3         0.698650   0.910200   0.258870   x 
            x  N            4         0.801350   0.410200   0.241130   x 
            x  O            1         0.305830   0.094270   0.235530   x 
            x  O            2         0.194170   0.594270   0.264470   x 
            x  O            3         0.694170   0.905730   0.764470   x 
            x  O            4         0.805830   0.405730   0.735530   x 
            x  O            5        -0.147760   0.141540   0.107110   x 
            x  O            6         0.647760   0.641540   0.392890   x 
            x  O            7         0.147760   0.858460   0.892890   x 
            x  O            8         0.352240   0.358460   0.607110   x 
            xxxxxxxxxxxxxxxxxxxxxxxxxxxxxxxxxxxxxxxxxxxxxxxxxxxxxxxxxxxx


                         No user defined ionic velocities

                           -------------------------------
                                   Details of Species
                           -------------------------------

                               Mass of species in AMU
                                    H    1.0079400
                                    C   12.0107000
                                    N   14.0067400
                                    O   15.9994000

                          Electric Quadrupole Moment (Barn)
                                    H    0.0028600 Isotope  2
                                    C    0.0332700 Isotope 11
                                    N    0.0204400 Isotope 14
                                    O   -0.0255800 Isotope 17

                          Files used for pseudopotentials:
                                    H 1|0.6|13|15|17|10(qc=8)
                                    C 2|1.4|10|12|13|20:21(qc=7)
                                    N 2|1.1|14|16|18|20:21(qc=7)
                                    O 2|1.1|17|20|23|20:21(qc=8)

                           -------------------------------
                              k-Points For BZ Sampling
                           -------------------------------
                       MP grid size for SCF calculation is  3  1  2
                            with an offset of   0.000  0.000  0.000
                       Number of kpoints used =             3

                           -------------------------------
                               Symmetry and Constraints
                           -------------------------------

                      Maximum deviation from symmetry = 0.267409E-14     ANG

                      Number of symmetry operations   =           4
                      Number of ionic constraints     =           3
                      Point group of crystal =     5: C2h, 2/m, 2/m
                      Space group of crystal =    14: P2_1/c, -P 2ybc

             Set iprint > 1 for details on symmetry rotations/translations

                         Centre of mass is constrained
             Set iprint > 1 for details of linear ionic constraints

                         Number of cell constraints= 2
                         Cell constraints are:  1 2 3 0 5 0

                         External pressure/stress (GPa)
                          0.00000   0.00000   0.00000
                                    0.00000   0.00000
                                              0.00000
 
+---------------- MEMORY AND SCRATCH DISK ESTIMATES PER PROCESS --------------+
|                                                     Memory          Disk    |
| Baseline code, static data and system overhead      804.0 MB         0.0 MB |
| BLAS internal memory storage                          0.0 MB         0.0 MB |
| Model and support data                              166.6 MB         0.0 MB |
| Electronic energy minimisation requirements          36.8 MB         0.0 MB |
| Force calculation requirements                       10.8 MB         0.0 MB |
|                                               ----------------------------- |
| Approx. total storage required per process         1007.4 MB         0.0 MB |
|                                                                             |
| Requirements will fluctuate during execution and may exceed these estimates |
+-----------------------------------------------------------------------------+
Calculating approximate eigenstates for fixed initial Hamiltonian
Cut-off for approx. calculation is   98.987 eV
Improving approx. states at cut-off of  462.594 eV
Resetting cut-off to  625.862 eV
Improving states further at cut-off of  625.862 eV
Calculating total energy with cut-off of  625.862 eV.
------------------------------------------------------------------------ <-- SCF
SCF loop      Energy                           Energy gain       Timer   <-- SCF
                                               per atom          (sec)   <-- SCF
------------------------------------------------------------------------ <-- SCF
Initial  -6.15682981E+003                                        151.53  <-- SCF
      1  -6.17309577E+003                    4.06648963E-001     188.62  <-- SCF
      2  -6.17314283E+003                    1.17641077E-003     222.93  <-- SCF
      3  -6.17314364E+003                    2.02673912E-005     250.58  <-- SCF
      4  -6.17314366E+003                    5.10721935E-007     279.89  <-- SCF
      5  -6.17314366E+003                    1.73451030E-008     305.12  <-- SCF
------------------------------------------------------------------------ <-- SCF
 
Final energy =  -6173.143658376     eV
(energy not corrected for finite basis set)
 

Writing analysis data to glycine_cif_1169354.castep_bin

Writing model to glycine_cif_1169354.check

WARNING - doing cell minimisation without finite basis correction:
        => now searching for a stationary and not minimum energy
 
+---------------- MEMORY AND SCRATCH DISK ESTIMATES PER PROCESS --------------+
|                                                     Memory          Disk    |
| Model and support data                              193.9 MB         0.0 MB |
| Electronic energy minimisation requirements          36.8 MB         0.0 MB |
| Geometry minimisation requirements                   43.2 MB         0.0 MB |
|                                               ----------------------------- |
| Approx. total storage required per process          273.9 MB         0.0 MB |
|                                                                             |
| Requirements will fluctuate during execution and may exceed these estimates |
+-----------------------------------------------------------------------------+
 

 ******************************** Symmetrised Forces ********************************
 *                                                                                  *
 *                           Cartesian components (eV/A)                            *
 * -------------------------------------------------------------------------------- *
 *                         x                    y                    z              *
 *                                                                                  *
 * H               1      2.05624              1.10651             -7.27699         *
 * H               2     -2.05624              1.10651              7.27699         *
 * H               3     -2.05624             -1.10651              7.27699         *
 * H               4      2.05624             -1.10651             -7.27699         *
 * H               5      9.69297              5.36174              8.34288         *
 * H               6     -9.69297              5.36174             -8.34288         *
 * H               7     -9.69297             -5.36174             -8.34288         *
 * H               8      9.69297             -5.36174              8.34288         *
 * H               9     -0.95217            -13.80030              2.32033         *
 * H              10      0.95217            -13.80030             -2.32033         *
 * H              11      0.95217             13.80030             -2.32033         *
 * H              12     -0.95217             13.80030              2.32033         *
 * H              13      1.38794             10.80473             -1.24824         *
 * H              14     -1.38794             10.80473              1.24824         *
 * H              15     -1.38794            -10.80473              1.24824         *
 * H              16      1.38794            -10.80473             -1.24824         *
 * H              17     -6.84750             -3.61302             -6.78087         *
 * H              18      6.84750             -3.61302              6.78087         *
 * H              19      6.84750              3.61302              6.78087         *
 * H              20     -6.84750              3.61302             -6.78087         *
 * C               1     -0.05646             -0.18008              0.13510         *
 * C               2      0.05646             -0.18008             -0.13510         *
 * C               3      0.05646              0.18008             -0.13510         *
 * C               4     -0.05646              0.18008              0.13510         *
 * C               5      4.94003             -6.77042              7.66416         *
 * C               6     -4.94003             -6.77042             -7.66416         *
 * C               7     -4.94003              6.77042             -7.66416         *
 * C               8      4.94003              6.77042              7.66416         *
 * N               1    -10.28456              7.10589             -3.29548         *
 * N               2     10.28456              7.10589              3.29548         *
 * N               3     10.28456             -7.10589              3.29548         *
 * N               4    -10.28456             -7.10589             -3.29548         *
 * O               1      0.63620             -0.29252              0.50949         *
 * O               2     -0.63620             -0.29252             -0.50949         *
 * O               3     -0.63620              0.29252             -0.50949         *
 * O               4      0.63620              0.29252              0.50949         *
 * O               5     -0.49598              0.16424             -0.20181         *
 * O               6      0.49598              0.16424              0.20181         *
 * O               7      0.49598             -0.16424              0.20181         *
 * O               8     -0.49598             -0.16424             -0.20181         *
 *                                                                                  *
 ************************************************************************************

 *********** Symmetrised Stress Tensor ***********
 *                                               *
 *          Cartesian components (GPa)           *
 * --------------------------------------------- *
 *             x             y             z     *
 *                                               *
 *  x    -17.599166      0.000000    -15.332354  *
 *  y      0.000000    -41.686139      0.000000  *
 *  z    -15.332354      0.000000    -22.984075  *
 *                                               *
 *  Pressure:   27.4231                          *
 *                                               *
 *************************************************
 LBFGS: finished iteration     0 with enthalpy= -6.17314366E+003 eV
  
 +-----------+-----------------+-----------------+------------+-----+ <-- LBFGS
 | Parameter |      value      |    tolerance    |    units   | OK? | <-- LBFGS
 +-----------+-----------------+-----------------+------------+-----+ <-- LBFGS
 |  dE/ion   |   0.000000E+000 |   2.000000E-005 |         eV | No  | <-- LBFGS
 |  |F|max   |   1.402636E+001 |   5.000000E-002 |       eV/A | No  | <-- LBFGS
 |  |dR|max  |   2.384490E-015 |   1.000000E-003 |          A | No  | <-- LBFGS
 |   Smax    |   4.168614E+001 |   1.000000E-001 |        GPa | No  | <-- LBFGS
 +-----------+-----------------+-----------------+------------+-----+ <-- LBFGS
  

================================================================================
 Starting LBFGS iteration          1 ...
================================================================================
  
 +------------+-------------+-------------+-----------------+ <-- min LBFGS
 |    Step    |   lambda    |   F.delta'  |    enthalpy     | <-- min LBFGS
 +------------+-------------+-------------+-----------------+ <-- min LBFGS
 |  previous  |    0.000000 |   13.513131 |    -6173.143658 | <-- min LBFGS
 +------------+-------------+-------------+-----------------+ <-- min LBFGS
  

--------------------------------------------------------------------------------
 LBFGS: starting iteration         1 with trial guess (lambda=  0.795324)
--------------------------------------------------------------------------------
 
+---------------- MEMORY AND SCRATCH DISK ESTIMATES PER PROCESS --------------+
|                                                     Memory          Disk    |
| Model and support data                              194.9 MB         0.0 MB |
| Electronic energy minimisation requirements          38.0 MB         0.0 MB |
| Geometry minimisation requirements                   44.7 MB         0.0 MB |
|                                               ----------------------------- |
| Approx. total storage required per process          277.5 MB         0.0 MB |
|                                                                             |
| Requirements will fluctuate during execution and may exceed these estimates |
+-----------------------------------------------------------------------------+
 

                           -------------------------------
                                      Unit Cell
                           -------------------------------
        Real Lattice(A)              Reciprocal Lattice(1/A)
     5.1496086     0.0000000     0.0414765        1.216307680   0.000000000   0.474409688
     0.0000000    12.2354886     0.0000000        0.000000000   0.513521406   0.000000000
    -1.9955002     0.0000000     5.1161313       -0.009860609   0.000000000   1.224266553

                       Lattice parameters(A)       Cell Angles
                    a =      5.149776          alpha =   90.000000
                    b =     12.235489          beta  =  110.846348
                    c =      5.491523          gamma =   90.000000

                Current cell volume =           323.369772 A**3
                            density =             0.928555 amu/A**3
                                    =             1.541902 g/cm^3

                           -------------------------------
                                     Cell Contents
                           -------------------------------

            xxxxxxxxxxxxxxxxxxxxxxxxxxxxxxxxxxxxxxxxxxxxxxxxxxxxxxxxxxxxxxxxx
            x  Element         Atom        Fractional coordinates of atoms  x
            x                 Number           u          v          w      x
            x---------------------------------------------------------------x
            x  H                 1         0.284295   0.100957  -0.444864   x
            x  H                 2         0.215705   0.600957   0.944864   x
            x  H                 3         0.715705   0.899043   0.444864   x
            x  H                 4         0.784295   0.399043   0.055136   x
            x  H                 5         0.483418   0.123639  -0.145959   x
            x  H                 6         0.016582   0.623639   0.645959   x
            x  H                 7         0.516582   0.876361   0.145959   x
            x  H                 8         0.983418   0.376361   0.354041   x
            x  H                 9         0.297942   0.008060  -0.232260   x
            x  H                10         0.202058   0.508060   0.732260   x
            x  H                11         0.702058   0.991940   0.232260   x
            x  H                12         0.797942   0.491940   0.267740   x
            x  H                13         0.081809   0.229349  -0.231550   x
            x  H                14         0.418191   0.729349   0.731550   x
            x  H                15         0.918191   0.770651   0.231550   x
            x  H                16         0.581809   0.270651   0.268450   x
            x  H                17        -0.121379   0.114874  -0.342851   x
            x  H                18         0.621379   0.614874   0.842851   x
            x  H                19         0.121379   0.885126   0.342851   x
            x  H                20         0.378621   0.385126   0.157149   x
            x  C                 1         0.075415   0.124624   0.066326   x
            x  C                 2         0.424585   0.624624   0.433674   x
            x  C                 3         0.924585   0.875376   0.933674   x
            x  C                 4         0.575415   0.375376   0.566326   x
            x  C                 5         0.081580   0.139132  -0.197235   x
            x  C                 6         0.418420   0.639132   0.697235   x
            x  C                 7         0.918420   0.860868   0.197235   x
            x  C                 8         0.581580   0.360868   0.302765   x
            x  N                 1         0.277809   0.095948  -0.265601   x
            x  N                 2         0.222191   0.595948   0.765601   x
            x  N                 3         0.722191   0.904052   0.265601   x
            x  N                 4         0.777809   0.404052   0.234399   x
            x  O                 1         0.307533   0.094017   0.236571   x
            x  O                 2         0.192467   0.594017   0.263429   x
            x  O                 3         0.692467   0.905983   0.763429   x
            x  O                 4         0.807533   0.405983   0.736571   x
            x  O                 5        -0.148930   0.141682   0.106698   x
            x  O                 6         0.648930   0.641682   0.393302   x
            x  O                 7         0.148930   0.858318   0.893302   x
            x  O                 8         0.351070   0.358318   0.606698   x
            xxxxxxxxxxxxxxxxxxxxxxxxxxxxxxxxxxxxxxxxxxxxxxxxxxxxxxxxxxxxxxxxx


------------------------------------------------------------------------ <-- SCF
SCF loop      Energy                           Energy gain       Timer   <-- SCF
                                               per atom          (sec)   <-- SCF
------------------------------------------------------------------------ <-- SCF
Initial  -6.08500356E+003                                        366.00  <-- SCF
      1  -6.18726481E+003                    2.55653113E+000     392.21  <-- SCF
      2  -6.18733067E+003                    1.64655526E-003     418.79  <-- SCF
      3  -6.18733164E+003                    2.41017551E-005     444.70  <-- SCF
      4  -6.18733167E+003                    7.46408704E-007     481.17  <-- SCF
      5  -6.18733167E+003                    2.93421664E-008     514.64  <-- SCF
------------------------------------------------------------------------ <-- SCF
 
Final energy =  -6187.331667021     eV
(energy not corrected for finite basis set)
 

 ******************************** Symmetrised Forces ********************************
 *                                                                                  *
 *                           Cartesian components (eV/A)                            *
 * -------------------------------------------------------------------------------- *
 *                         x                    y                    z              *
 *                                                                                  *
 * H               1      0.30679              0.66751             -2.83302         *
 * H               2     -0.30679              0.66751              2.83302         *
 * H               3     -0.30679             -0.66751              2.83302         *
 * H               4      0.30679             -0.66751             -2.83302         *
 * H               5     -0.41046             -0.26452             -0.07772         *
 * H               6      0.41046             -0.26452              0.07772         *
 * H               7      0.41046              0.26452              0.07772         *
 * H               8     -0.41046              0.26452             -0.07772         *
 * H               9     -0.11344              1.05243             -0.02322         *
 * H              10      0.11344              1.05243              0.02322         *
 * H              11      0.11344             -1.05243              0.02322         *
 * H              12     -0.11344             -1.05243             -0.02322         *
 * H              13     -0.19164             -0.05721              0.19337         *
 * H              14      0.19164             -0.05721             -0.19337         *
 * H              15      0.19164              0.05721             -0.19337         *
 * H              16     -0.19164              0.05721              0.19337         *
 * H              17     -0.27676             -0.00286              0.14816         *
 * H              18      0.27676             -0.00286             -0.14816         *
 * H              19      0.27676              0.00286             -0.14816         *
 * H              20     -0.27676              0.00286              0.14816         *
 * C               1      0.45230             -0.93589              1.69863         *
 * C               2     -0.45230             -0.93589             -1.69863         *
 * C               3     -0.45230              0.93589             -1.69863         *
 * C               4      0.45230              0.93589              1.69863         *
 * C               5     -6.16360              4.09409             -1.34572         *
 * C               6      6.16360              4.09409              1.34572         *
 * C               7      6.16360             -4.09409              1.34572         *
 * C               8     -6.16360             -4.09409             -1.34572         *
 * N               1      6.97297             -4.98656              2.61158         *
 * N               2     -6.97297             -4.98656             -2.61158         *
 * N               3     -6.97297              4.98656             -2.61158         *
 * N               4      6.97297              4.98656              2.61158         *
 * O               1     -0.71469              0.21985             -0.02998         *
 * O               2      0.71469              0.21985              0.02998         *
 * O               3      0.71469             -0.21985              0.02998         *
 * O               4     -0.71469             -0.21985             -0.02998         *
 * O               5      0.21609             -0.09984             -0.17503         *
 * O               6     -0.21609             -0.09984              0.17503         *
 * O               7     -0.21609              0.09984              0.17503         *
 * O               8      0.21609              0.09984             -0.17503         *
 *                                                                                  *
 ************************************************************************************

 *********** Symmetrised Stress Tensor ***********
 *                                               *
 *          Cartesian components (GPa)           *
 * --------------------------------------------- *
 *             x             y             z     *
 *                                               *
 *  x     -2.556755      0.000000      5.749049  *
 *  y      0.000000      8.548456      0.000000  *
 *  z      5.749049      0.000000      1.899852  *
 *                                               *
 *  Pressure:   -2.6305                          *
 *                                               *
 *************************************************
  
 +------------+-------------+-------------+-----------------+ <-- min LBFGS
 |    Step    |   lambda    |   F.delta'  |    enthalpy     | <-- min LBFGS
 +------------+-------------+-------------+-----------------+ <-- min LBFGS
 |  previous  |    0.000000 |   13.513131 |    -6173.143658 | <-- min LBFGS
 | trial step |    0.795324 |   -2.587491 |    -6187.331667 | <-- min LBFGS
 +------------+-------------+-------------+-----------------+ <-- min LBFGS
  
 LBFGS: finished iteration     1 with enthalpy= -6.18733167E+003 eV
  
 +-----------+-----------------+-----------------+------------+-----+ <-- LBFGS
 | Parameter |      value      |    tolerance    |    units   | OK? | <-- LBFGS
 +-----------+-----------------+-----------------+------------+-----+ <-- LBFGS
 |  dE/ion   |   3.547002E-001 |   2.000000E-005 |         eV | No  | <-- LBFGS
 |  |F|max   |   8.961499E+000 |   5.000000E-002 |       eV/A | No  | <-- LBFGS
 |  |dR|max  |   1.484164E-001 |   1.000000E-003 |          A | No  | <-- LBFGS
 |   Smax    |   8.548456E+000 |   1.000000E-001 |        GPa | No  | <-- LBFGS
 +-----------+-----------------+-----------------+------------+-----+ <-- LBFGS
  

================================================================================
 Starting LBFGS iteration          2 ...
================================================================================
  
 +------------+-------------+-------------+-----------------+ <-- min LBFGS
 |    Step    |   lambda    |   F.delta'  |    enthalpy     | <-- min LBFGS
 +------------+-------------+-------------+-----------------+ <-- min LBFGS
 |  previous  |    0.000000 |    4.662055 |    -6187.331667 | <-- min LBFGS
 +------------+-------------+-------------+-----------------+ <-- min LBFGS
  

--------------------------------------------------------------------------------
 LBFGS: starting iteration         2 with trial guess (lambda=  1.000000)
--------------------------------------------------------------------------------
 
+---------------- MEMORY AND SCRATCH DISK ESTIMATES PER PROCESS --------------+
|                                                     Memory          Disk    |
| Model and support data                              195.3 MB         0.0 MB |
| Electronic energy minimisation requirements          38.1 MB         0.0 MB |
| Geometry minimisation requirements                   44.7 MB         0.0 MB |
|                                               ----------------------------- |
| Approx. total storage required per process          278.2 MB         0.0 MB |
|                                                                             |
| Requirements will fluctuate during execution and may exceed these estimates |
+-----------------------------------------------------------------------------+
 

                           -------------------------------
                                      Unit Cell
                           -------------------------------
        Real Lattice(A)              Reciprocal Lattice(1/A)
     5.1641868     0.0000000     0.0305168        1.213867523   0.000000000   0.476678619
     0.0000000    12.2152918     0.0000000        0.000000000   0.514370463   0.000000000
    -2.0121586     0.0000000     5.1239847       -0.007229407   0.000000000   1.223391354

                       Lattice parameters(A)       Cell Angles
                    a =      5.164277          alpha =   90.000000
                    b =     12.215292          beta  =  111.101068
                    c =      5.504907          gamma =   90.000000

                Current cell volume =           323.981527 A**3
                            density =             0.926801 amu/A**3
                                    =             1.538990 g/cm^3

                           -------------------------------
                                     Cell Contents
                           -------------------------------

            xxxxxxxxxxxxxxxxxxxxxxxxxxxxxxxxxxxxxxxxxxxxxxxxxxxxxxxxxxxxxxxxx
            x  Element         Atom        Fractional coordinates of atoms  x
            x                 Number           u          v          w      x
            x---------------------------------------------------------------x
            x  H                 1         0.282220   0.101719  -0.453191   x
            x  H                 2         0.217780   0.601719   0.953191   x
            x  H                 3         0.717780   0.898281   0.453191   x
            x  H                 4         0.782220   0.398281   0.046809   x
            x  H                 5         0.486283   0.124064  -0.143669   x
            x  H                 6         0.013717   0.624064   0.643669   x
            x  H                 7         0.513717   0.875936   0.143669   x
            x  H                 8         0.986283   0.375936   0.356331   x
            x  H                 9         0.297667   0.007314  -0.231627   x
            x  H                10         0.202333   0.507314   0.731627   x
            x  H                11         0.702333   0.992686   0.231627   x
            x  H                12         0.797667   0.492686   0.268373   x
            x  H                13         0.081826   0.230648  -0.231500   x
            x  H                14         0.418174   0.730648   0.731500   x
            x  H                15         0.918174   0.769352   0.231500   x
            x  H                16         0.581826   0.269352   0.268500   x
            x  H                17        -0.124654   0.114419  -0.344537   x
            x  H                18         0.624654   0.614419   0.844537   x
            x  H                19         0.124654   0.885581   0.344537   x
            x  H                20         0.375346   0.385581   0.155463   x
            x  C                 1         0.077890   0.123728   0.070080   x
            x  C                 2         0.422110   0.623728   0.429920   x
            x  C                 3         0.922110   0.876272   0.929920   x
            x  C                 4         0.577890   0.376272   0.570080   x
            x  C                 5         0.069373   0.142105  -0.198013   x
            x  C                 6         0.430627   0.642105   0.698013   x
            x  C                 7         0.930627   0.857895   0.198013   x
            x  C                 8         0.569373   0.357895   0.301987   x
            x  N                 1         0.291827   0.092184  -0.260756   x
            x  N                 2         0.208173   0.592184   0.760756   x
            x  N                 3         0.708173   0.907816   0.260756   x
            x  N                 4         0.791827   0.407816   0.239244   x
            x  O                 1         0.306203   0.094185   0.236643   x
            x  O                 2         0.193797   0.594185   0.263357   x
            x  O                 3         0.693797   0.905815   0.763357   x
            x  O                 4         0.806203   0.405815   0.736643   x
            x  O                 5        -0.148785   0.141609   0.106260   x
            x  O                 6         0.648785   0.641609   0.393740   x
            x  O                 7         0.148785   0.858391   0.893740   x
            x  O                 8         0.351215   0.358391   0.606260   x
            xxxxxxxxxxxxxxxxxxxxxxxxxxxxxxxxxxxxxxxxxxxxxxxxxxxxxxxxxxxxxxxxx


------------------------------------------------------------------------ <-- SCF
SCF loop      Energy                           Energy gain       Timer   <-- SCF
                                               per atom          (sec)   <-- SCF
------------------------------------------------------------------------ <-- SCF
Initial  -6.16226463E+003                                        611.49  <-- SCF
      1  -6.19043455E+003                    7.04248108E-001     669.49  <-- SCF
      2  -6.19044755E+003                    3.24891657E-004     709.74  <-- SCF
      3  -6.19044770E+003                    3.85192344E-006     739.65  <-- SCF
      4  -6.19044771E+003                    1.18133204E-007     765.93  <-- SCF
------------------------------------------------------------------------ <-- SCF
 
Final energy =  -6190.447706190     eV
(energy not corrected for finite basis set)
 

 ******************************** Symmetrised Forces ********************************
 *                                                                                  *
 *                           Cartesian components (eV/A)                            *
 * -------------------------------------------------------------------------------- *
 *                         x                    y                    z              *
 *                                                                                  *
 * H               1     -0.06579              0.19277             -0.74134         *
 * H               2      0.06579              0.19277              0.74134         *
 * H               3      0.06579             -0.19277              0.74134         *
 * H               4     -0.06579             -0.19277             -0.74134         *
 * H               5      0.08869             -0.27286              0.26039         *
 * H               6     -0.08869             -0.27286             -0.26039         *
 * H               7     -0.08869              0.27286             -0.26039         *
 * H               8      0.08869              0.27286              0.26039         *
 * H               9      0.06249              0.14684              0.21039         *
 * H              10     -0.06249              0.14684             -0.21039         *
 * H              11     -0.06249             -0.14684             -0.21039         *
 * H              12      0.06249             -0.14684              0.21039         *
 * H              13     -0.14781              0.20993              0.09042         *
 * H              14      0.14781              0.20993             -0.09042         *
 * H              15      0.14781             -0.20993             -0.09042         *
 * H              16     -0.14781             -0.20993              0.09042         *
 * H              17     -0.45176             -0.10123             -0.12311         *
 * H              18      0.45176             -0.10123              0.12311         *
 * H              19      0.45176              0.10123              0.12311         *
 * H              20     -0.45176              0.10123             -0.12311         *
 * C               1     -0.79828             -0.07627              0.36251         *
 * C               2      0.79828             -0.07627             -0.36251         *
 * C               3      0.79828              0.07627             -0.36251         *
 * C               4     -0.79828              0.07627              0.36251         *
 * C               5      0.06252              0.77070             -1.44602         *
 * C               6     -0.06252              0.77070              1.44602         *
 * C               7     -0.06252             -0.77070              1.44602         *
 * C               8      0.06252             -0.77070             -1.44602         *
 * N               1      1.03358             -0.79407              0.73755         *
 * N               2     -1.03358             -0.79407             -0.73755         *
 * N               3     -1.03358              0.79407             -0.73755         *
 * N               4      1.03358              0.79407              0.73755         *
 * O               1     -0.06422             -0.07988              0.62212         *
 * O               2      0.06422             -0.07988             -0.62212         *
 * O               3      0.06422              0.07988             -0.62212         *
 * O               4     -0.06422              0.07988              0.62212         *
 * O               5      0.28143             -0.22521              0.18335         *
 * O               6     -0.28143             -0.22521             -0.18335         *
 * O               7     -0.28143              0.22521             -0.18335         *
 * O               8      0.28143              0.22521              0.18335         *
 *                                                                                  *
 ************************************************************************************

 *********** Symmetrised Stress Tensor ***********
 *                                               *
 *          Cartesian components (GPa)           *
 * --------------------------------------------- *
 *             x             y             z     *
 *                                               *
 *  x      7.082175      0.000000      0.080469  *
 *  y      0.000000      8.328210      0.000000  *
 *  z      0.080469      0.000000      4.247986  *
 *                                               *
 *  Pressure:   -6.5528                          *
 *                                               *
 *************************************************
  
 +------------+-------------+-------------+-----------------+ <-- min LBFGS
 |    Step    |   lambda    |   F.delta'  |    enthalpy     | <-- min LBFGS
 +------------+-------------+-------------+-----------------+ <-- min LBFGS
 |  previous  |    0.000000 |    4.662055 |    -6187.331667 | <-- min LBFGS
 | trial step |    1.000000 |    0.629027 |    -6190.447706 | <-- min LBFGS
 +------------+-------------+-------------+-----------------+ <-- min LBFGS
  
 LBFGS: finished iteration     2 with enthalpy= -6.19044771E+003 eV
  
 +-----------+-----------------+-----------------+------------+-----+ <-- LBFGS
 | Parameter |      value      |    tolerance    |    units   | OK? | <-- LBFGS
 +-----------+-----------------+-----------------+------------+-----+ <-- LBFGS
 |  dE/ion   |   7.790098E-002 |   2.000000E-005 |         eV | No  | <-- LBFGS
 |  |F|max   |   1.639777E+000 |   5.000000E-002 |       eV/A | No  | <-- LBFGS
 |  |dR|max  |   8.170440E-002 |   1.000000E-003 |          A | No  | <-- LBFGS
 |   Smax    |   8.328210E+000 |   1.000000E-001 |        GPa | No  | <-- LBFGS
 +-----------+-----------------+-----------------+------------+-----+ <-- LBFGS
  

================================================================================
 Starting LBFGS iteration          3 ...
================================================================================
  
 +------------+-------------+-------------+-----------------+ <-- min LBFGS
 |    Step    |   lambda    |   F.delta'  |    enthalpy     | <-- min LBFGS
 +------------+-------------+-------------+-----------------+ <-- min LBFGS
 |  previous  |    0.000000 |    1.276365 |    -6190.447706 | <-- min LBFGS
 +------------+-------------+-------------+-----------------+ <-- min LBFGS
  

--------------------------------------------------------------------------------
 LBFGS: starting iteration         3 with trial guess (lambda=  1.000000)
--------------------------------------------------------------------------------

                           -------------------------------
                                      Unit Cell
                           -------------------------------
        Real Lattice(A)              Reciprocal Lattice(1/A)
     5.1375675     0.0000000     0.0309644        1.220107753   0.000000000   0.477945879
     0.0000000    12.1432106     0.0000000        0.000000000   0.517423728   0.000000000
    -2.0011855     0.0000000     5.1086579       -0.007395277   0.000000000   1.227012281

                       Lattice parameters(A)       Cell Angles
                    a =      5.137661          alpha =   90.000000
                    b =     12.143211          beta  =  111.046166
                    c =      5.486632          gamma =   90.000000

                Current cell volume =           319.464077 A**3
                            density =             0.939907 amu/A**3
                                    =             1.560752 g/cm^3

                           -------------------------------
                                     Cell Contents
                           -------------------------------

            xxxxxxxxxxxxxxxxxxxxxxxxxxxxxxxxxxxxxxxxxxxxxxxxxxxxxxxxxxxxxxxxx
            x  Element         Atom        Fractional coordinates of atoms  x
            x                 Number           u          v          w      x
            x---------------------------------------------------------------x
            x  H                 1         0.280970   0.102034  -0.456294   x
            x  H                 2         0.219030   0.602034   0.956294   x
            x  H                 3         0.719030   0.897966   0.456294   x
            x  H                 4         0.780970   0.397966   0.043706   x
            x  H                 5         0.487786   0.123872  -0.142265   x
            x  H                 6         0.012214   0.623872   0.642265   x
            x  H                 7         0.512214   0.876128   0.142265   x
            x  H                 8         0.987786   0.376128   0.357735   x
            x  H                 9         0.298091   0.007113  -0.230821   x
            x  H                10         0.201909   0.507113   0.730821   x
            x  H                11         0.701909   0.992887   0.230821   x
            x  H                12         0.798091   0.492887   0.269179   x
            x  H                13         0.081546   0.231260  -0.231303   x
            x  H                14         0.418454   0.731260   0.731303   x
            x  H                15         0.918454   0.768740   0.231303   x
            x  H                16         0.581546   0.268740   0.268697   x
            x  H                17        -0.126894   0.114173  -0.345409   x
            x  H                18         0.626894   0.614173   0.845409   x
            x  H                19         0.126894   0.885827   0.345409   x
            x  H                20         0.373106   0.385827   0.154591   x
            x  C                 1         0.076068   0.123579   0.071361   x
            x  C                 2         0.423932   0.623579   0.428639   x
            x  C                 3         0.923932   0.876421   0.928639   x
            x  C                 4         0.576068   0.376421   0.571361   x
            x  C                 5         0.067649   0.143079  -0.201943   x
            x  C                 6         0.432351   0.643079   0.701943   x
            x  C                 7         0.932351   0.856921   0.201943   x
            x  C                 8         0.567649   0.356921   0.298057   x
            x  N                 1         0.295858   0.091148  -0.258462   x
            x  N                 2         0.204142   0.591148   0.758462   x
            x  N                 3         0.704142   0.908852   0.258462   x
            x  N                 4         0.795858   0.408852   0.241538   x
            x  O                 1         0.306742   0.094084   0.238547   x
            x  O                 2         0.193258   0.594084   0.261453   x
            x  O                 3         0.693258   0.905916   0.761453   x
            x  O                 4         0.806742   0.405916   0.738547   x
            x  O                 5        -0.147747   0.141321   0.106781   x
            x  O                 6         0.647747   0.641321   0.393219   x
            x  O                 7         0.147747   0.858679   0.893219   x
            x  O                 8         0.352253   0.358679   0.606781   x
            xxxxxxxxxxxxxxxxxxxxxxxxxxxxxxxxxxxxxxxxxxxxxxxxxxxxxxxxxxxxxxxxx


------------------------------------------------------------------------ <-- SCF
SCF loop      Energy                           Energy gain       Timer   <-- SCF
                                               per atom          (sec)   <-- SCF
------------------------------------------------------------------------ <-- SCF
Initial  -6.18700601E+003                                        828.01  <-- SCF
      1  -6.19068531E+003                    9.19824601E-002     854.20  <-- SCF
      2  -6.19068904E+003                    9.33012795E-005     882.88  <-- SCF
      3  -6.19068908E+003                    9.36821872E-007     908.95  <-- SCF
      4  -6.19068908E+003                    2.26840745E-008     942.70  <-- SCF
------------------------------------------------------------------------ <-- SCF
 
Final energy =  -6190.689082495     eV
(energy not corrected for finite basis set)
 

 ******************************** Symmetrised Forces ********************************
 *                                                                                  *
 *                           Cartesian components (eV/A)                            *
 * -------------------------------------------------------------------------------- *
 *                         x                    y                    z              *
 *                                                                                  *
 * H               1      0.01203             -0.02283             -0.18184         *
 * H               2     -0.01203             -0.02283              0.18184         *
 * H               3     -0.01203              0.02283              0.18184         *
 * H               4      0.01203              0.02283             -0.18184         *
 * H               5      0.32535             -0.18220              0.42749         *
 * H               6     -0.32535             -0.18220             -0.42749         *
 * H               7     -0.32535              0.18220             -0.42749         *
 * H               8      0.32535              0.18220              0.42749         *
 * H               9      0.08554             -0.38868              0.29429         *
 * H              10     -0.08554             -0.38868             -0.29429         *
 * H              11     -0.08554              0.38868             -0.29429         *
 * H              12      0.08554              0.38868              0.29429         *
 * H              13     -0.04723              0.56657             -0.05082         *
 * H              14      0.04723              0.56657              0.05082         *
 * H              15      0.04723             -0.56657              0.05082         *
 * H              16     -0.04723             -0.56657             -0.05082         *
 * H              17     -0.44900             -0.13500             -0.29054         *
 * H              18      0.44900             -0.13500              0.29054         *
 * H              19      0.44900              0.13500              0.29054         *
 * H              20     -0.44900              0.13500             -0.29054         *
 * C               1      0.48237             -0.05879             -0.29324         *
 * C               2     -0.48237             -0.05879              0.29324         *
 * C               3     -0.48237              0.05879              0.29324         *
 * C               4      0.48237              0.05879             -0.29324         *
 * C               5      0.22475             -0.01177             -0.31890         *
 * C               6     -0.22475             -0.01177              0.31890         *
 * C               7     -0.22475              0.01177              0.31890         *
 * C               8      0.22475              0.01177             -0.31890         *
 * N               1      0.36004              0.12749             -0.34994         *
 * N               2     -0.36004              0.12749              0.34994         *
 * N               3     -0.36004             -0.12749              0.34994         *
 * N               4      0.36004             -0.12749             -0.34994         *
 * O               1     -0.12654             -0.05115              0.50104         *
 * O               2      0.12654             -0.05115             -0.50104         *
 * O               3      0.12654              0.05115             -0.50104         *
 * O               4     -0.12654              0.05115              0.50104         *
 * O               5     -0.85904             -0.03124              0.38733         *
 * O               6      0.85904             -0.03124             -0.38733         *
 * O               7      0.85904              0.03124             -0.38733         *
 * O               8     -0.85904              0.03124              0.38733         *
 *                                                                                  *
 ************************************************************************************

 *********** Symmetrised Stress Tensor ***********
 *                                               *
 *          Cartesian components (GPa)           *
 * --------------------------------------------- *
 *             x             y             z     *
 *                                               *
 *  x      4.391795      0.000000     -0.145405  *
 *  y      0.000000      6.494054      0.000000  *
 *  z     -0.145405      0.000000      6.090251  *
 *                                               *
 *  Pressure:   -5.6587                          *
 *                                               *
 *************************************************
  
 +------------+-------------+-------------+-----------------+ <-- min LBFGS
 |    Step    |   lambda    |   F.delta'  |    enthalpy     | <-- min LBFGS
 +------------+-------------+-------------+-----------------+ <-- min LBFGS
 |  previous  |    0.000000 |    1.276365 |    -6190.447706 | <-- min LBFGS
 | trial step |    1.000000 |    0.465520 |    -6190.689082 | <-- min LBFGS
 +------------+-------------+-------------+-----------------+ <-- min LBFGS
  

--------------------------------------------------------------------------------
 LBFGS: improving iteration         3 with line minimization (lambda=  1.574117)
--------------------------------------------------------------------------------

                           -------------------------------
                                      Unit Cell
                           -------------------------------
        Real Lattice(A)              Reciprocal Lattice(1/A)
     5.1222850     0.0000000     0.0312214        1.223719568   0.000000000   0.478676161
     0.0000000    12.1018275     0.0000000        0.000000000   0.519193096   0.000000000
    -1.9948857     0.0000000     5.0998585       -0.007491630   0.000000000   1.229100836

                       Lattice parameters(A)       Cell Angles
                    a =      5.122380          alpha =   90.000000
                    b =     12.101828          beta  =  111.014468
                    c =      5.476142          gamma =   90.000000

                Current cell volume =           316.888917 A**3
                            density =             0.947545 amu/A**3
                                    =             1.573436 g/cm^3

                           -------------------------------
                                     Cell Contents
                           -------------------------------

            xxxxxxxxxxxxxxxxxxxxxxxxxxxxxxxxxxxxxxxxxxxxxxxxxxxxxxxxxxxxxxxxx
            x  Element         Atom        Fractional coordinates of atoms  x
            x                 Number           u          v          w      x
            x---------------------------------------------------------------x
            x  H                 1         0.280252   0.102215  -0.458076   x
            x  H                 2         0.219748   0.602215   0.958076   x
            x  H                 3         0.719748   0.897785   0.458076   x
            x  H                 4         0.780252   0.397785   0.041924   x
            x  H                 5         0.488649   0.123761  -0.141459   x
            x  H                 6         0.011351   0.623761   0.641459   x
            x  H                 7         0.511351   0.876239   0.141459   x
            x  H                 8         0.988649   0.376239   0.358541   x
            x  H                 9         0.298335   0.006998  -0.230359   x
            x  H                10         0.201665   0.506998   0.730359   x
            x  H                11         0.701665   0.993002   0.230359   x
            x  H                12         0.798335   0.493002   0.269641   x
            x  H                13         0.081386   0.231611  -0.231190   x
            x  H                14         0.418614   0.731611   0.731190   x
            x  H                15         0.918614   0.768389   0.231190   x
            x  H                16         0.581386   0.268389   0.268810   x
            x  H                17        -0.128181   0.114033  -0.345910   x
            x  H                18         0.628181   0.614033   0.845910   x
[...]
               C 1 -- C 5                    0.78        1.48980
               C 4 -- C 8                    0.78        1.48980
              H 5  -- O 5                    0.16        1.58170
              H 8  -- O 8                    0.16        1.58170
              H 6  -- O 6                    0.16        1.58170
              H 7  -- O 7                    0.16        1.58170
              H 4  -- O 4                    0.14        1.61142
              H 3  -- O 3                    0.14        1.61142
              H 2  -- O 2                    0.14        1.61142
              H 1  -- O 1                    0.14        1.61142
              H 1  -- H 5                   -0.09        1.68327
              H 4  -- H 8                   -0.09        1.68327
              H 3  -- H 7                   -0.09        1.68327
              H 2  -- H 6                   -0.09        1.68327
              H 6  -- H 10                  -0.09        1.69355
              H 5  -- H 9                   -0.09        1.69355
              H 8  -- H 12                  -0.09        1.69355
              H 7  -- H 11                  -0.09        1.69355
              H 1  -- H 9                   -0.09        1.70864
              H 2  -- H 10                  -0.09        1.70864
              H 4  -- H 12                  -0.09        1.70864
              H 3  -- H 11                  -0.09        1.70864
              H 14 -- H 18                  -0.09        1.77894
              H 15 -- H 19                  -0.09        1.77894
              H 16 -- H 20                  -0.09        1.77894
              H 13 -- H 17                  -0.09        1.77894
              H 11 -- O 5                    0.07        1.84666
              H 10 -- O 8                    0.07        1.84666
              H 12 -- O 6                    0.07        1.84666
              H 9  -- O 7                    0.07        1.84666
              H 15 -- O 6                   -0.01        1.99884
              H 14 -- O 7                   -0.01        1.99884
              H 16 -- O 5                   -0.01        1.99884
              H 13 -- O 8                   -0.01        1.99884
              H 8  -- C 8                   -0.15        2.07262
              H 7  -- C 7                   -0.15        2.07262
              H 6  -- C 6                   -0.15        2.07262
              H 5  -- C 5                   -0.15        2.07262
              H 15 -- N 3                   -0.12        2.07298
              H 14 -- N 2                   -0.12        2.07298
              H 16 -- N 4                   -0.12        2.07298
              H 13 -- N 1                   -0.12        2.07298
              H 10 -- C 6                   -0.13        2.07712
              H 12 -- C 8                   -0.13        2.07712
              H 9  -- C 5                   -0.13        2.07712
              H 11 -- C 7                   -0.13        2.07712
              H 13 -- O 4                    0.00        2.09855
              H 16 -- O 1                    0.00        2.09855
              H 14 -- O 3                    0.00        2.09855
              H 15 -- O 2                    0.00        2.09855
              H 5  -- H 11                  -0.03        2.10154
              H 8  -- H 10                  -0.03        2.10154
              H 7  -- H 9                   -0.03        2.10154
              H 6  -- H 12                  -0.03        2.10154
              H 15 -- C 3                   -0.12        2.10183
              H 14 -- C 2                   -0.12        2.10183
              H 16 -- C 4                   -0.12        2.10183
              H 13 -- C 1                   -0.12        2.10183
              H 18 -- N 2                   -0.12        2.12371
              H 17 -- N 1                   -0.12        2.12371
              H 19 -- N 3                   -0.12        2.12371
              H 20 -- N 4                   -0.12        2.12371
              H 4  -- C 8                   -0.09        2.13051
              H 3  -- C 7                   -0.09        2.13051
              H 1  -- C 5                   -0.09        2.13051
              H 2  -- C 6                   -0.09        2.13051
              H 17 -- C 1                   -0.13        2.13545
              H 19 -- C 3                   -0.13        2.13545
              H 18 -- C 2                   -0.13        2.13545
              H 20 -- C 4                   -0.13        2.13545
              H 11 -- H 17                  -0.03        2.15099
              H 12 -- H 18                  -0.03        2.15099
              H 9  -- H 19                  -0.03        2.15099
              H 10 -- H 20                  -0.03        2.15099
              H 13 -- H 20                  -0.04        2.17539
              H 15 -- H 18                  -0.04        2.17539
              H 16 -- H 17                  -0.04        2.17539
              H 14 -- H 19                  -0.04        2.17539
              H 20 -- O 4                    0.02        2.18562
              H 18 -- O 2                    0.02        2.18562
              H 17 -- O 1                    0.02        2.18562
              H 19 -- O 3                    0.02        2.18562
              H 4  -- C 4                   -0.07        2.21870
              H 2  -- C 2                   -0.07        2.21870
              H 1  -- C 1                   -0.07        2.21870
              H 3  -- C 3                   -0.07        2.21870
               O 4 -- O 8                   -0.21        2.22286
               O 1 -- O 5                   -0.21        2.22286
               O 3 -- O 7                   -0.21        2.22286
               O 2 -- O 6                   -0.21        2.22286
              H 8  -- H 13                  -0.03        2.24586
              H 6  -- H 15                  -0.03        2.24586
              H 7  -- H 14                  -0.03        2.24586
              H 5  -- H 16                  -0.03        2.24586
              H 1  -- H 11                  -0.01        2.26521
              H 3  -- H 9                   -0.01        2.26521
              H 2  -- H 12                  -0.01        2.26521
              H 4  -- H 10                  -0.01        2.26521
              H 11 -- O 1                   -0.01        2.28372
              H 12 -- O 2                   -0.01        2.28372
              H 9  -- O 3                   -0.01        2.28372
              H 10 -- O 4                   -0.01        2.28372
              H 2  -- H 20                  -0.02        2.29206
              H 3  -- H 17                  -0.02        2.29206
              H 1  -- H 19                  -0.02        2.29206
              H 4  -- H 18                  -0.02        2.29206
              H 4  -- O 8                   -0.01        2.30857
              H 1  -- O 5                   -0.01        2.30857
              H 2  -- O 6                   -0.01        2.30857
              H 3  -- O 7                   -0.01        2.30857
              H 7  -- H 15                  -0.04        2.34274
              H 8  -- H 16                  -0.04        2.34274
              H 6  -- H 14                  -0.04        2.34274
              H 5  -- H 13                  -0.04        2.34274
               C 7 -- O 3                   -0.24        2.36126
               C 6 -- O 2                   -0.24        2.36126
               C 5 -- O 1                   -0.24        2.36126
               C 8 -- O 4                   -0.24        2.36126
               C 6 -- O 6                   -0.21        2.37252
               C 7 -- O 7                   -0.21        2.37252
               C 5 -- O 5                   -0.21        2.37252
               C 8 -- O 8                   -0.21        2.37252
              H 4  -- H 20                  -0.05        2.40038
              H 1  -- H 17                  -0.05        2.40038
              H 2  -- H 18                  -0.05        2.40038
              H 3  -- H 19                  -0.05        2.40038
               C 1 -- N 1                   -0.17        2.41232
               C 3 -- N 3                   -0.17        2.41232
               C 4 -- N 4                   -0.17        2.41232
               C 2 -- N 2                   -0.17        2.41232
              H 5  -- C 1                   -0.10        2.41503
              H 6  -- C 2                   -0.10        2.41503
              H 8  -- C 4                   -0.10        2.41503
              H 7  -- C 3                   -0.10        2.41503
              H 11 -- C 1                   -0.05        2.41668
              H 12 -- C 2                   -0.05        2.41668
              H 10 -- C 4                   -0.05        2.41668
              H 9  -- C 3                   -0.05        2.41668
              H 5  -- H 17                   0.02        2.43303
              H 7  -- H 19                   0.02        2.43303
              H 8  -- H 20                   0.02        2.43303
              H 6  -- H 18                   0.02        2.43303
              H 13 -- C 4                   -0.05        2.43683
              H 14 -- C 3                   -0.05        2.43683
              H 16 -- C 1                   -0.05        2.43683
              H 15 -- C 2                   -0.05        2.43683
              H 20 -- O 2                   -0.01        2.44899
              H 19 -- O 1                   -0.01        2.44899
              H 18 -- O 4                   -0.01        2.44899
              H 17 -- O 3                   -0.01        2.44899
              H 4  -- H 16                  -0.02        2.47816
              H 3  -- H 15                  -0.02        2.47816
              H 2  -- H 14                  -0.02        2.47816
              H 1  -- H 13                  -0.02        2.47816
              H 10 -- H 12                  -0.01        2.48325
              H 9  -- H 11                  -0.01        2.48325
              H 6  -- O 2                   -0.00        2.50510
              H 8  -- O 4                   -0.00        2.50510
              H 7  -- O 3                   -0.00        2.50510
              H 5  -- O 1                   -0.00        2.50510
              H 10 -- H 18                  -0.02        2.51251
              H 12 -- H 20                  -0.02        2.51251
              H 9  -- H 17                  -0.02        2.51251
              H 11 -- H 19                  -0.02        2.51251
              H 10 -- O 2                    0.00        2.56663
              H 9  -- O 1                    0.00        2.56663
              H 12 -- O 4                    0.00        2.56663
              H 11 -- O 3                    0.00        2.56663
              H 5  -- O 3                   -0.00        2.57790
              H 7  -- O 1                   -0.00        2.57790
              H 8  -- O 2                   -0.00        2.57790
              H 6  -- O 4                   -0.00        2.57790
              H 14 -- H 15                  -0.02        2.59819
              H 13 -- H 16                  -0.02        2.59819
              H 20 -- O 8                   -0.03        2.60113
              H 17 -- O 5                   -0.03        2.60113
              H 19 -- O 7                   -0.03        2.60113
              H 18 -- O 6                   -0.03        2.60113
              H 6  -- O 7                   -0.00        2.60682
              H 7  -- O 6                   -0.00        2.60682
              H 8  -- O 5                   -0.00        2.60682
              H 5  -- O 8                   -0.00        2.60682
               N 1 -- O 1                   -0.18        2.61019
               N 2 -- O 2                   -0.18        2.61019
               N 4 -- O 4                   -0.18        2.61019
               N 3 -- O 3                   -0.18        2.61019
              H 10 -- C 2                   -0.04        2.61828
              H 12 -- C 4                   -0.04        2.61828
              H 9  -- C 1                   -0.04        2.61828
              H 11 -- C 3                   -0.04        2.61828
               N 4 -- O 8                   -0.15        2.64294
               N 1 -- O 5                   -0.15        2.64294
               N 3 -- O 7                   -0.15        2.64294
               N 2 -- O 6                   -0.15        2.64294
              H 2  -- O 7                   -0.00        2.65182
              H 3  -- O 6                   -0.00        2.65182
              H 4  -- O 5                   -0.00        2.65182
              H 1  -- O 8                   -0.00        2.65182
              H 20 -- N 2                   -0.03        2.66438
              H 17 -- N 3                   -0.03        2.66438
              H 19 -- N 1                   -0.03        2.66438
              H 18 -- N 4                   -0.03        2.66438
              H 12 -- N 2                   -0.05        2.67006
              H 11 -- N 1                   -0.05        2.67006
              H 9  -- N 3                   -0.05        2.67006
              H 10 -- N 4                   -0.05        2.67006
              H 11 -- H 16                  -0.01        2.69343
              H 10 -- H 13                  -0.01        2.69343
              H 9  -- H 14                  -0.01        2.69343
              H 12 -- H 15                  -0.01        2.69343
               N 3 -- O 1                   -0.05        2.71680
               N 4 -- O 2                   -0.05        2.71680
               N 2 -- O 4                   -0.05        2.71680
               N 1 -- O 3                   -0.05        2.71680
              H 3  -- O 1                   -0.01        2.71858
              H 2  -- O 4                   -0.01        2.71858
              H 4  -- O 2                   -0.01        2.71858
              H 1  -- O 3                   -0.01        2.71858
              H 3  -- N 1                   -0.02        2.75437
              H 4  -- N 2                   -0.02        2.75437
              H 1  -- N 3                   -0.02        2.75437
              H 2  -- N 4                   -0.02        2.75437
              H 15 -- O 7                   -0.01        2.76314
              H 14 -- O 6                   -0.01        2.76314
              H 16 -- O 8                   -0.01        2.76314
              H 13 -- O 5                   -0.01        2.76314
               C 1 -- O 3                   -0.02        2.77245
               C 4 -- O 2                   -0.02        2.77245
               C 2 -- O 4                   -0.02        2.77245
               C 3 -- O 1                   -0.02        2.77245
              H 13 -- C 8                   -0.06        2.79336
              H 16 -- C 5                   -0.06        2.79336
              H 14 -- C 7                   -0.06        2.79336
              H 15 -- C 6                   -0.06        2.79336
               C 1 -- C 3                   -0.04        2.80605
               C 2 -- C 4                   -0.04        2.80605
              H 11 -- C 5                   -0.02        2.80788
              H 9  -- C 7                   -0.02        2.80788
              H 12 -- C 6                   -0.02        2.80788
              H 10 -- C 8                   -0.02        2.80788
              H 18 -- C 3                   -0.02        2.80837
              H 19 -- C 2                   -0.02        2.80837
              H 17 -- C 4                   -0.02        2.80837
              H 20 -- C 1                   -0.02        2.80837
               C 7 -- O 6                   -0.08        2.82281
               C 6 -- O 7                   -0.08        2.82281
               C 8 -- O 5                   -0.08        2.82281
               C 5 -- O 8                   -0.08        2.82281
               N 3 -- O 6                   -0.02        2.82560
               N 2 -- O 7                   -0.02        2.82560
               N 4 -- O 5                   -0.02        2.82560
               N 1 -- O 8                   -0.02        2.82560
               N 3 -- O 5                   -0.08        2.85445
               N 2 -- O 8                   -0.08        2.85445
               N 1 -- O 7                   -0.08        2.85445
               N 4 -- O 6                   -0.08        2.85445
              H 3  -- C 5                   -0.02        2.85775
              H 2  -- C 8                   -0.02        2.85775
              H 1  -- C 7                   -0.02        2.85775
              H 4  -- C 6                   -0.02        2.85775
               C 7 -- O 1                   -0.03        2.88863
               C 6 -- O 4                   -0.03        2.88863
               C 5 -- O 3                   -0.03        2.88863
               C 8 -- O 2                   -0.03        2.88863
              H 5  -- H 7                   -0.00        2.89873
              H 6  -- H 8                   -0.00        2.89873
              H 17 -- C 8                   -0.03        2.91494
              H 19 -- C 6                   -0.03        2.91494
              H 20 -- C 5                   -0.03        2.91494
              H 18 -- C 7                   -0.03        2.91494
              H 5  -- N 3                   -0.01        2.92247
              H 7  -- N 1                   -0.01        2.92247
              H 8  -- N 2                   -0.01        2.92247
              H 6  -- N 4                   -0.01        2.92247
              H 1  -- H 3                   -0.00        2.92538
              H 2  -- H 4                   -0.00        2.92538
              H 13 -- N 4                   -0.01        2.93592
              H 16 -- N 1                   -0.01        2.93592
              H 14 -- N 3                   -0.01        2.93592
              H 15 -- N 2                   -0.01        2.93592
              H 15 -- O 3                    0.00        2.95722
              H 14 -- O 2                    0.00        2.95722
              H 16 -- O 4                    0.00        2.95722
              H 13 -- O 1                    0.00        2.95722
              H 10 -- H 14                   0.04        2.95978
              H 12 -- H 16                   0.04        2.95978
              H 9  -- H 13                   0.04        2.95978
              H 11 -- H 15                   0.04        2.95978
               C 8 -- O 1                   -0.06        2.97723
               C 6 -- O 3                   -0.06        2.97723
               C 5 -- O 4                   -0.06        2.97723
               C 7 -- O 2                   -0.06        2.97723
               N 2 -- N 4                   -0.02        2.98037
               N 1 -- N 3                   -0.02        2.98037
======================================================================


Writing analysis data to glycine_cif_1169354.castep_bin

Writing model to glycine_cif_1169354.check
Initialisation time =     58.59 s
Calculation time    =  14895.82 s
Finalisation time   =      1.00 s
Total time          =  14955.41 s
Peak Memory Use     = 1204604 kB
 
Overall parallel efficiency rating: Mediocre (53%)
 
Data was distributed by:-
G-vector (2-way); efficiency rating: Mediocre (58%)
k-point (3-way); efficiency rating: Very good (84%)
