 +-------------------------------------------------+
 |                                                 |
 |      CCC   AA    SSS  TTTTT  EEEEE  PPPP        |
 |     C     A  A  S       T    E      P   P       |
 |     C     AAAA   SS     T    EEE    PPPP        |
 |     C     A  A     S    T    E      P           |
 |      CCC  A  A  SSS     T    EEEEE  P           |
 |                                                 |
 +-------------------------------------------------+
 |                                                 |
 | Welcome to Academic Release CASTEP version 22.11|
 | Ab Initio Total Energy Program                  |
 |                                                 |
 | Authors:                                        |
 | M. Segall, M. Probert, C. Pickard, P. Hasnip,   |
 | S. Clark, K. Refson, J. R. Yates, M. Payne      |
 |                                                 |
 | Contributors:                                   |
 | P. Lindan, P. Haynes, J. White, V. Milman,      |
 | N. Govind, M. Gibson, P. Tulip, V. Cocula,      |
 | B. Montanari, D. Quigley, M. Glover,            |
 | L. Bernasconi, A. Perlov, M. Plummer,           |
 | E. McNellis, J. Meyer, J. Gale, D. Jochym       |
 | J. Aarons, B. Walker, R. Gillen, D. Jones       |
 | T. Green, I. J. Bush, C. J. Armstrong,          |
 | E. J. Higgins, E. L. Brown, M. S. McFly,        |
 | J. Wilkins, B-C. Shih, P. J. P. Byrne,          |
 | R. J. Maurer, J. C. Womack, J. Dziedzic,        |
 | A. Bartok-Partay, L. LeBlanc, T. K. Stenczel,   |
 | J. Kermode, S. Sturniolo, B. Shi, B. Durham     |
 | M. Evans, M. J. Smith                           |
 |                                                 |
 | Copyright (c) 2000 - 2021                       |
 |                                                 |
 |     Distributed under license from Cambridge    |
 |     Enterprise for academic use only.           |
 |                                                 |
 | Please cite                                     |
 |                                                 |
 |     "First principles methods using CASTEP"     |
 |                                                 |
 |         Zeitschrift fuer Kristallographie       |
 |           220(5-6) pp. 567-570 (2005)           |
 |                                                 |
 | S. J. Clark, M. D. Segall, C. J. Pickard,       |
 | P. J. Hasnip, M. J. Probert, K. Refson,         |
 | M. C. Payne                                     |
 |                                                 |
 |       in all publications arising from          |
 |              your use of CASTEP                 |
 |                                                 |
 +-------------------------------------------------+
 |                                                 |
 |              http://www.castep.org              |
 |                                                 |
 +-------------------------------------------------+



 Compiled for linux_x86_64_gfortran10 on Tue, 24 Oct 2023 15:07:27 -0400
 from code version b807d1bba+  Castep221_branch  Wed Sep 14 11:18:35 2022 +0100
 Compiler: GNU Fortran 11.4.0; Optimisation: coverage
 MATHLIBS: openblas (LAPACK version 3.10.0)
 FFT Lib : fftw3 version fftw-3.3.8-sse2-avx
 Fundamental constants values: CODATA 2014

 Run started: Sun, 29 Oct 2023 11:36:50 -0400

 Atomic calculation performed for H: 1s1

 Converged in 41 iterations to an ae energy of -12.488 eV

   ============================================================                
   | Pseudopotential Report - Date of generation 29-10-2023   |                
   ------------------------------------------------------------                
   | Element: H Ionic charge:  1.00 Level of theory: PBE      |                
   | Atomic Solver: Koelling-Harmon                           |                
   |                                                          |                
   |               Reference Electronic Structure             |                
   |         Orbital         Occupation         Energy        |                
   |            1s              1.000           -0.239        |                
   |                                                          |                
   |                 Pseudopotential Definition               |                
   |        Beta     l      e      Rc     scheme   norm       |                
   |          1      0   -0.239   0.599     qc      0         |                
   |          2      0    0.250   0.599     qc      0         |                
   |         loc     1    0.000   0.599     pn      0         |                
   |                                                          |                
   | Augmentation charge Rinner = 0.421                       |                
   | No partial core correction                               |                
   ------------------------------------------------------------                
   | "1|0.6|13|15|17|10(qc=8)"                                |                
   ------------------------------------------------------------                
   |      Author: Chris J. Pickard, Cambridge University      |                
   ============================================================                

 Atomic calculation performed for C: 1s2 2s2 2p2

 Converged in 54 iterations to an ae energy of -1027.632 eV

   ============================================================                
   | Pseudopotential Report - Date of generation 29-10-2023   |                
   ------------------------------------------------------------                
   | Element: C Ionic charge:  4.00 Level of theory: PBE      |                
   | Atomic Solver: Koelling-Harmon                           |                
   |                                                          |                
   |               Reference Electronic Structure             |                
   |         Orbital         Occupation         Energy        |                
   |            2s              2.000           -0.505        |                
   |            2p              2.000           -0.194        |                
   |                                                          |                
   |                 Pseudopotential Definition               |                
   |        Beta     l      e      Rc     scheme   norm       |                
   |          1      0   -0.505   1.395     qc      0         |                
   |          2      0    0.250   1.395     qc      0         |                
   |          3      1   -0.194   1.395     qc      0         |                
   |          4      1    0.250   1.395     qc      0         |                
   |         loc     2    0.000   1.395     pn      0         |                
   |                                                          |                
   | Augmentation charge Rinner = 0.983                       |                
   | Partial core correction Rc = 0.983                       |                
   ------------------------------------------------------------                
   | "2|1.4|10|12|13|20:21(qc=7)"                             |                
   ------------------------------------------------------------                
   |      Author: Chris J. Pickard, Cambridge University      |                
   ============================================================                

 Atomic calculation performed for N: 1s2 2s2 2p3

 Converged in 56 iterations to an ae energy of -1481.742 eV

   ============================================================                
   | Pseudopotential Report - Date of generation 29-10-2023   |                
   ------------------------------------------------------------                
   | Element: N Ionic charge:  5.00 Level of theory: PBE      |                
   | Atomic Solver: Koelling-Harmon                           |                
   |                                                          |                
   |               Reference Electronic Structure             |                
   |         Orbital         Occupation         Energy        |                
   |            2s              2.000           -0.683        |                
   |            2p              3.000           -0.261        |                
   |                                                          |                
   |                 Pseudopotential Definition               |                
   |        Beta     l      e      Rc     scheme   norm       |                
   |          1      0   -0.683   1.100     qc      0         |                
   |          2      0    0.250   1.100     qc      0         |                
   |          3      1   -0.261   1.100     qc      0         |                
   |          4      1    0.250   1.100     qc      0         |                
   |         loc     2    0.000   1.100     pn      0         |                
   |                                                          |                
   | Augmentation charge Rinner = 0.769                       |                
   | Partial core correction Rc = 0.769                       |                
   ------------------------------------------------------------                
   | "2|1.1|14|16|18|20:21(qc=7)"                             |                
   ------------------------------------------------------------                
   |      Author: Chris J. Pickard, Cambridge University      |                
   ============================================================                

 Atomic calculation performed for O: 1s2 2s2 2p4

 Converged in 61 iterations to an ae energy of -2040.902 eV

   ============================================================                
   | Pseudopotential Report - Date of generation 29-10-2023   |                
   ------------------------------------------------------------                
   | Element: O Ionic charge:  6.00 Level of theory: PBE      |                
   | Atomic Solver: Koelling-Harmon                           |                
   |                                                          |                
   |               Reference Electronic Structure             |                
   |         Orbital         Occupation         Energy        |                
   |            2s              2.000           -0.881        |                
   |            2p              4.000           -0.332        |                
   |                                                          |                
   |                 Pseudopotential Definition               |                
   |        Beta     l      e      Rc     scheme   norm       |                
   |          1      0   -0.881   1.100     qc      0         |                
   |          2      0    0.250   1.100     qc      0         |                
   |          3      1   -0.332   1.100     qc      0         |                
   |          4      1    0.250   1.100     qc      0         |                
   |         loc     2    0.000   1.100     pn      0         |                
   |                                                          |                
   | Augmentation charge Rinner = 0.769                       |                
   | Partial core correction Rc = 0.769                       |                
   ------------------------------------------------------------                
   | "2|1.1|17|20|23|20:21(qc=8)"                             |                
   ------------------------------------------------------------                
   |      Author: Chris J. Pickard, Cambridge University      |                
   ============================================================                

 Pseudo atomic calculation performed for H 1s1

 Converged in 12 iterations to a total energy of -12.4814 eV

 Pseudo atomic calculation performed for C 2s2 2p2

 Converged in 17 iterations to a total energy of -148.5211 eV

 Pseudo atomic calculation performed for N 2s2 2p3

 Converged in 20 iterations to a total energy of -268.1836 eV

 Pseudo atomic calculation performed for O 2s2 2p4

 Converged in 22 iterations to a total energy of -432.0447 eV
 Calculation parallelised over 8 processes.
 Data is distributed by G-vector(8-way)

 ************************************ Title ************************************
 

 ***************************** General Parameters ******************************
  
 output verbosity                               : normal  (1)
 write checkpoint data to                       : L-alanine_cif_278466-17O_opt.check
 type of calculation                            : geometry optimization
 stress calculation                             : on
 density difference calculation                 : off
 electron localisation func (ELF) calculation   : off
 Hirshfeld analysis                             : off
 polarisation (Berry phase) analysis            : off
 molecular orbital projected DOS                : off
 deltaSCF calculation                           : off
 unlimited duration calculation
 timing information                             : on
 memory usage estimate                          : on
 write extra output files                       : on
 write final potential to formatted file        : off
 write final density to formatted file          : on
 write structure in CELL formatted file         : on
 write BibTeX reference list                    : on
 write OTFG pseudopotential files               : on
 write electrostatic potential file             : on
 write bands file                               : on
 checkpoint writing                             : both castep_bin and check files
  
 output         length unit                     : A
 output           mass unit                     : amu
 output           time unit                     : ps
 output         charge unit                     : e
 output           spin unit                     : hbar/2
 output         energy unit                     : eV
 output          force unit                     : eV/A
 output       velocity unit                     : A/ps
 output       pressure unit                     : GPa
 output     inv_length unit                     : 1/A
 output      frequency unit                     : cm-1
 output force constant unit                     : eV/A**2
 output         volume unit                     : A**3
 output   IR intensity unit                     : (D/A)**2/amu
 output         dipole unit                     : D
 output         efield unit                     : eV/A/e
 output        entropy unit                     : J/mol/K
 output    efield chi2 unit                     : pm/V
  
 wavefunctions paging                           : none
 random number generator seed                   : randomised (113651116)
 data distribution                              : optimal for this architecture
 optimization strategy                          : maximize speed(+++)

 *********************** Exchange-Correlation Parameters ***********************
  
 using functional                               : Perdew Burke Ernzerhof
 relativistic treatment                         : Koelling-Harmon
 DFT+D: Semi-empirical dispersion correction    : off

 ************************* Pseudopotential Parameters **************************
  
 pseudopotential representation                 : reciprocal space
 <beta|phi> representation                      : reciprocal space
 spin-orbit coupling                            : off

 **************************** Basis Set Parameters *****************************
  
 basis set accuracy                             : FINE
 plane wave basis set cut-off                   :   625.8619   eV
 size of standard grid                          :     1.7500
 size of   fine   gmax                          :    22.4293   1/A
 finite basis set correction                    : none

 **************************** Electronic Parameters ****************************
  
 number of  electrons                           :  144.0    
 net charge of system                           :  0.000    
 treating system as non-spin-polarized
 number of bands                                :         72

 ********************* Electronic Minimization Parameters **********************
  
 Method: Treating system as non-metallic,
         and number of  SD  steps               :          1
         and number of  CG  steps               :          4
  
 total energy / atom convergence tol.           : 0.1000E-04   eV
 max force / atom convergence tol.              : ignored
 convergence tolerance window                   :          3   cycles
 max. number of SCF cycles                      :        100
 periodic dipole correction                     : NONE

 *********************** Population Analysis Parameters ************************
  
 Population analysis with cutoff                :  3.000       A
 Population analysis output                     : summary and pdos components

 ********************** Geometry Optimization Parameters ***********************
  
 optimization method                            : LBFGS
 max. no. of LBFGS updates                      : unbounded
 variable cell method                           : fixed basis quality
 max. number of steps                           :        100
 estimated bulk modulus                         :  500.0       GPa
 estimated <frequency>                          :  1668.       cm-1
 geom line minimiser                            : on
 with line minimiser tolerance                  :     0.4000
 total energy convergence tolerance             : 0.2000E-04   eV/atom
        max ionic |force| tolerance             : 0.5000E-01   eV/A
 max ionic |displacement| tolerance             : 0.1000E-02   A
   max |stress component| tolerance             : 0.1000       GPa
 convergence tolerance window                   :          2   steps
 backup results every                           : 2147483647   steps
 write geom trajectory file                     : on

 *******************************************************************************
  

                           -------------------------------
                                      Unit Cell
                           -------------------------------
        Real Lattice(A)                      Reciprocal Lattice(1/A)
     5.9420000     0.0000000     0.0000000        1.057419271   0.000000000   0.000000000
     0.0000000    12.2610000     0.0000000        0.000000000   0.512452924   0.000000000
     0.0000000     0.0000000     5.7850000        0.000000000   0.000000000   1.086116734

                       Lattice parameters(A)       Cell Angles
                    a =      5.942000          alpha =   90.000000
                    b =     12.261000          beta  =   90.000000
                    c =      5.785000          gamma =   90.000000

                       Current cell volume =           421.465377       A**3
                                   density =             0.845557   AMU/A**3
                                           =             1.404080     g/cm^3

                           -------------------------------
                                     Cell Contents
                           -------------------------------
                         Total number of ions in cell =   52
                      Total number of species in cell =    4
                        Max number of any one species =   28

            xxxxxxxxxxxxxxxxxxxxxxxxxxxxxxxxxxxxxxxxxxxxxxxxxxxxxxxxxxxx
            x  Element    Atom        Fractional coordinates of atoms  x
            x            Number           u          v          w      x
            x----------------------------------------------------------x
            x  H            1         0.689301   0.996769   0.688786   x 
            x  H            2         0.869062   0.896011   0.563980   x 
            x  H            3         0.802340   0.890243   0.864897   x 
            x  H            4         0.294890   0.940110   0.806232   x 
            x  H            5         0.421264   0.846257   0.985403   x 
            x  H            6         0.576875   0.751773   0.654395   x 
            x  H            7         0.220739   0.804133   0.789206   x 
            x  H            8         0.810699   0.003231   0.188786   x 
            x  H            9         0.189301   0.503231   0.311214   x 
            x  H           10         0.310699   0.496769   0.811214   x 
            x  H           11         0.630938   0.103989   0.063980   x 
            x  H           12         0.369062   0.603989   0.436020   x 
            x  H           13         0.130938   0.396011   0.936020   x 
            x  H           14         0.697660   0.109757   0.364897   x 
            x  H           15         0.302340   0.609757   0.135103   x 
            x  H           16         0.197660   0.390243   0.635103   x 
            x  H           17         0.205110   0.059890   0.306232   x 
            x  H           18         0.794890   0.559890   0.193768   x 
            x  H           19         0.705110   0.440110   0.693768   x 
            x  H           20         0.078736   0.153743   0.485403   x 
            x  H           21         0.921264   0.653743   0.014597   x 
            x  H           22         0.578736   0.346257   0.514597   x 
            x  H           23         0.923125   0.248227   0.154395   x 
            x  H           24         0.076875   0.748227   0.345605   x 
            x  H           25         0.423125   0.251773   0.845605   x 
            x  H           26         0.279261   0.195867   0.289206   x 
            x  H           27         0.720739   0.695867   0.210794   x 
            x  H           28         0.779261   0.304133   0.710794   x 
            x  C            1         0.735127   0.909665   0.692230   x 
            x  C            2         0.440738   0.860120   0.397689   x 
            x  C            3         0.531209   0.838893   0.641462   x 
            x  C            4         0.764873   0.090335   0.192230   x 
            x  C            5         0.235127   0.590335   0.307770   x 
            x  C            6         0.264873   0.409665   0.807770   x 
            x  C            7         0.059262   0.139880   0.897689   x 
            x  C            8         0.940738   0.639880   0.602311   x 
            x  C            9         0.559262   0.360120   0.102311   x 
            x  C           10         0.968791   0.161107   0.141462   x 
            x  C           11         0.031209   0.661107   0.358538   x 
            x  C           12         0.468791   0.338893   0.858538   x 
            x  N            1         0.353746   0.859486   0.815379   x 
            x  N            2         0.146254   0.140514   0.315379   x 
            x  N            3         0.853746   0.640514   0.184621   x 
            x  N            4         0.646254   0.359486   0.684621   x 
            x  O            1         0.271169   0.920000   0.375509   x 
            x  O            2         0.548122   0.814889   0.232546   x 
            x  O            3         0.228831   0.080000   0.875509   x 
            x  O            4         0.771169   0.580000   0.624491   x 
            x  O            5         0.728831   0.420000   0.124491   x 
            x  O            6         0.951878   0.185111   0.732546   x 
            x  O            7         0.048122   0.685111   0.767454   x 
            x  O            8         0.451878   0.314889   0.267454   x 
            xxxxxxxxxxxxxxxxxxxxxxxxxxxxxxxxxxxxxxxxxxxxxxxxxxxxxxxxxxxx


                         No user defined ionic velocities

                           -------------------------------
                                   Details of Species
                           -------------------------------

                               Mass of species in AMU
                                    H    1.0079400
                                    C   12.0107000
                                    N   14.0067400
                                    O   16.9991315

                          Electric Quadrupole Moment (Barn)
                                    H    0.0028600 Isotope  2
                                    C    0.0332700 Isotope 11
                                    N    0.0204400 Isotope 14
                                    O   -0.0255800 Isotope 17

                          Files used for pseudopotentials:
                                    H 1|0.6|13|15|17|10(qc=8)
                                    C 2|1.4|10|12|13|20:21(qc=7)
                                    N 2|1.1|14|16|18|20:21(qc=7)
                                    O 2|1.1|17|20|23|20:21(qc=8)

                           -------------------------------
                              k-Points For BZ Sampling
                           -------------------------------
                       MP grid size for SCF calculation is  2  1  2
                            with an offset of   0.000  0.000  0.000
                       Number of kpoints used =             1

                           -------------------------------
                               Symmetry and Constraints
                           -------------------------------

                      Maximum deviation from symmetry = 0.136124E-13     ANG

                      Number of symmetry operations   =           4
                      Number of ionic constraints     =           3
                      Point group of crystal =     7: D2, 222, 2 2 2
                      Space group of crystal =    19: P2_12_12_1, P 2ac 2ab

             Set iprint > 1 for details on symmetry rotations/translations

                         Centre of mass is constrained
             Set iprint > 1 for details of linear ionic constraints

                         Number of cell constraints= 6
                         Cell constraints are:  0 0 0 0 0 0

                         External pressure/stress (GPa)
                          0.00000   0.00000   0.00000
                                    0.00000   0.00000
                                              0.00000
 
+---------------- MEMORY AND SCRATCH DISK ESTIMATES PER PROCESS --------------+
|                                                     Memory          Disk    |
| Baseline code, static data and system overhead      815.0 MB         0.0 MB |
| BLAS internal memory storage                          0.0 MB         0.0 MB |
| Model and support data                              122.2 MB         0.0 MB |
| Electronic energy minimisation requirements          16.9 MB         0.0 MB |
| Force calculation requirements                        3.4 MB         0.0 MB |
| Stress calculation requirements                       3.8 MB         0.0 MB |
|                                               ----------------------------- |
| Approx. total storage required per process          954.0 MB         0.0 MB |
|                                                                             |
| Requirements will fluctuate during execution and may exceed these estimates |
+-----------------------------------------------------------------------------+
Calculating approximate eigenstates for fixed initial Hamiltonian
Cut-off for approx. calculation is  192.897 eV
Improving approx. states at cut-off of  462.594 eV
Resetting cut-off to  625.862 eV
Improving states further at cut-off of  625.862 eV
Calculating total energy with cut-off of  625.862 eV.
------------------------------------------------------------------------ <-- SCF
SCF loop      Energy                           Energy gain       Timer   <-- SCF
                                               per atom          (sec)   <-- SCF
------------------------------------------------------------------------ <-- SCF
Initial  -6.95117810E+003                                         89.45  <-- SCF
      1  -6.96696450E+003                    3.03584768E-001     105.63  <-- SCF
      2  -6.96699139E+003                    5.16986177E-004     124.40  <-- SCF
      3  -6.96699208E+003                    1.32771609E-005     140.17  <-- SCF
      4  -6.96699210E+003                    4.65474412E-007     159.83  <-- SCF
      5  -6.96699210E+003                    1.79573485E-008     177.16  <-- SCF
------------------------------------------------------------------------ <-- SCF
 
Final energy =  -6966.992103789     eV
(energy not corrected for finite basis set)
 

Writing analysis data to L-alanine_cif_278466-17O_opt.castep_bin

Writing model to L-alanine_cif_278466-17O_opt.check
 
+---------------- MEMORY AND SCRATCH DISK ESTIMATES PER PROCESS --------------+
|                                                     Memory          Disk    |
| Model and support data                              114.8 MB         0.0 MB |
| Electronic energy minimisation requirements          16.9 MB         0.0 MB |
| Geometry minimisation requirements                   19.5 MB         0.0 MB |
|                                               ----------------------------- |
| Approx. total storage required per process          151.2 MB         0.0 MB |
|                                                                             |
| Requirements will fluctuate during execution and may exceed these estimates |
+-----------------------------------------------------------------------------+
 

 ******************************** Symmetrised Forces ********************************
 *                                                                                  *
 *                           Cartesian components (eV/A)                            *
 * -------------------------------------------------------------------------------- *
 *                         x                    y                    z              *
 *                                                                                  *
 * H               1      0.04947             -0.14245              0.00808         *
 * H               2     -0.12634              0.03351              0.11597         *
 * H               3     -0.03903              0.04679             -0.15728         *
 * H               4      0.04940             -0.24907              0.02498         *
 * H               5     -0.11339              0.02991             -0.22028         *
 * H               6     -0.07026              0.18459              0.00435         *
 * H               7      0.16416              0.14663              0.03850         *
 * H               8     -0.04947              0.14245              0.00808         *
 * H               9      0.04947              0.14245             -0.00808         *
 * H              10     -0.04947             -0.14245             -0.00808         *
 * H              11      0.12634             -0.03351              0.11597         *
 * H              12     -0.12634             -0.03351             -0.11597         *
 * H              13      0.12634              0.03351             -0.11597         *
 * H              14      0.03903             -0.04679             -0.15728         *
 * H              15     -0.03903             -0.04679              0.15728         *
 * H              16      0.03903              0.04679              0.15728         *
 * H              17     -0.04940              0.24907              0.02498         *
 * H              18      0.04940              0.24907             -0.02498         *
 * H              19     -0.04940             -0.24907             -0.02498         *
 * H              20      0.11339             -0.02991             -0.22028         *
 * H              21     -0.11339             -0.02991              0.22028         *
 * H              22      0.11339              0.02991              0.22028         *
 * H              23      0.07026             -0.18459              0.00435         *
 * H              24     -0.07026             -0.18459             -0.00435         *
 * H              25      0.07026              0.18459             -0.00435         *
 * H              26     -0.16416             -0.14663              0.03850         *
 * H              27      0.16416             -0.14663             -0.03850         *
 * H              28     -0.16416              0.14663             -0.03850         *
 * C               1      0.25338              0.16877              0.06042         *
 * C               2      0.01286              0.01486             -0.00131         *
 * C               3      0.12365             -0.28635             -0.05749         *
 * C               4     -0.25338             -0.16877              0.06042         *
 * C               5      0.25338             -0.16877             -0.06042         *
 * C               6     -0.25338              0.16877             -0.06042         *
 * C               7     -0.01286             -0.01486             -0.00131         *
 * C               8      0.01286             -0.01486              0.00131         *
 * C               9     -0.01286              0.01486              0.00131         *
 * C              10     -0.12365              0.28635             -0.05749         *
 * C              11      0.12365              0.28635              0.05749         *
 * C              12     -0.12365             -0.28635              0.05749         *
 * N               1     -0.27038              0.05063              0.27297         *
 * N               2      0.27038             -0.05063              0.27297         *
 * N               3     -0.27038             -0.05063             -0.27297         *
 * N               4      0.27038              0.05063             -0.27297         *
 * O               1     -0.16949              0.07485             -0.03047         *
 * O               2      0.11089             -0.07910             -0.08858         *
 * O               3      0.16949             -0.07485             -0.03047         *
 * O               4     -0.16949             -0.07485              0.03047         *
 * O               5      0.16949              0.07485              0.03047         *
 * O               6     -0.11089              0.07910             -0.08858         *
 * O               7      0.11089              0.07910              0.08858         *
 * O               8     -0.11089             -0.07910              0.08858         *
 *                                                                                  *
 ************************************************************************************
 LBFGS: finished iteration     0 with enthalpy= -6.96699210E+003 eV
  
 +-----------+-----------------+-----------------+------------+-----+ <-- LBFGS
 | Parameter |      value      |    tolerance    |    units   | OK? | <-- LBFGS
 +-----------+-----------------+-----------------+------------+-----+ <-- LBFGS
 |  dE/ion   |   0.000000E+000 |   2.000000E-005 |         eV | No  | <-- LBFGS
 |  |F|max   |   3.875281E-001 |   5.000000E-002 |       eV/A | No  | <-- LBFGS
 |  |dR|max  |   0.000000E+000 |   1.000000E-003 |          A | No  | <-- LBFGS
 +-----------+-----------------+-----------------+------------+-----+ <-- LBFGS
  

================================================================================
 Starting LBFGS iteration          1 ...
================================================================================
  
 +------------+-------------+-------------+-----------------+ <-- min LBFGS
 |    Step    |   lambda    |   F.delta'  |    enthalpy     | <-- min LBFGS
 +------------+-------------+-------------+-----------------+ <-- min LBFGS
 |  previous  |    0.000000 |    0.431407 |    -6966.992104 | <-- min LBFGS
 +------------+-------------+-------------+-----------------+ <-- min LBFGS
  

--------------------------------------------------------------------------------
 LBFGS: starting iteration         1 with trial guess (lambda=  1.000000)
--------------------------------------------------------------------------------

                           -------------------------------
                                     Cell Contents
                           -------------------------------

            xxxxxxxxxxxxxxxxxxxxxxxxxxxxxxxxxxxxxxxxxxxxxxxxxxxxxxxxxxxxxxxxx
            x  Element         Atom        Fractional coordinates of atoms  x
            x                 Number           u          v          w      x
            x---------------------------------------------------------------x
            x  H                 1         0.689417   0.996607   0.688805   x
            x  H                 2         0.868766   0.896049   0.564259   x
            x  H                 3         0.802249   0.890296   0.864518   x
            x  H                 4         0.295006   0.939826   0.806292   x
            x  H                 5         0.420998   0.846291   0.984872   x
            x  H                 6         0.576710   0.751983   0.654405   x
            x  H                 7         0.221125   0.804300   0.789299   x
            x  H                 8         0.810583   0.003393   0.188805   x
            x  H                 9         0.189417   0.503393   0.311195   x
            x  H                10         0.310583   0.496607   0.811195   x
            x  H                11         0.631234   0.103951   0.064259   x
            x  H                12         0.368766   0.603951   0.435741   x
            x  H                13         0.131234   0.396049   0.935741   x
            x  H                14         0.697751   0.109704   0.364518   x
            x  H                15         0.302249   0.609704   0.135482   x
            x  H                16         0.197751   0.390296   0.635482   x
            x  H                17         0.204994   0.060174   0.306292   x
            x  H                18         0.795006   0.560174   0.193708   x
            x  H                19         0.704994   0.439826   0.693708   x
            x  H                20         0.079002   0.153709   0.484872   x
            x  H                21         0.920998   0.653709   0.015128   x
            x  H                22         0.579002   0.346291   0.515128   x
            x  H                23         0.923290   0.248017   0.154405   x
            x  H                24         0.076710   0.748017   0.345595   x
            x  H                25         0.423290   0.251983   0.845595   x
            x  H                26         0.278875   0.195700   0.289299   x
            x  H                27         0.721125   0.695700   0.210701   x
            x  H                28         0.778875   0.304300   0.710701   x
            x  C                 1         0.735722   0.909857   0.692375   x
            x  C                 2         0.440768   0.860137   0.397686   x
            x  C                 3         0.531499   0.838568   0.641323   x
            x  C                 4         0.764278   0.090143   0.192375   x
            x  C                 5         0.235722   0.590143   0.307625   x
            x  C                 6         0.264278   0.409857   0.807625   x
            x  C                 7         0.059232   0.139863   0.897686   x
            x  C                 8         0.940768   0.639863   0.602314   x
            x  C                 9         0.559232   0.360137   0.102314   x
            x  C                10         0.968501   0.161432   0.141323   x
            x  C                11         0.031499   0.661432   0.358677   x
            x  C                12         0.468501   0.338568   0.858677   x
            x  N                 1         0.353112   0.859543   0.816038   x
            x  N                 2         0.146888   0.140457   0.316038   x
            x  N                 3         0.853112   0.640457   0.183962   x
            x  N                 4         0.646888   0.359543   0.683962   x
            x  O                 1         0.270771   0.920085   0.375436   x
            x  O                 2         0.548382   0.814799   0.232332   x
            x  O                 3         0.229229   0.079915   0.875436   x
            x  O                 4         0.770771   0.579915   0.624564   x
            x  O                 5         0.729229   0.420085   0.124564   x
            x  O                 6         0.951618   0.185201   0.732332   x
            x  O                 7         0.048382   0.685201   0.767668   x
            x  O                 8         0.451618   0.314799   0.267668   x
            xxxxxxxxxxxxxxxxxxxxxxxxxxxxxxxxxxxxxxxxxxxxxxxxxxxxxxxxxxxxxxxxx


------------------------------------------------------------------------ <-- SCF
SCF loop      Energy                           Energy gain       Timer   <-- SCF
                                               per atom          (sec)   <-- SCF
------------------------------------------------------------------------ <-- SCF
Initial  -6.96679088E+003                                        183.94  <-- SCF
      1  -6.96701413E+003                    4.29323203E-003     200.65  <-- SCF
      2  -6.96701424E+003                    2.21106334E-006     236.03  <-- SCF
      3  -6.96701424E+003                    2.52064310E-008     258.72  <-- SCF
------------------------------------------------------------------------ <-- SCF
 
Final energy =  -6967.014242911     eV
(energy not corrected for finite basis set)
 

 ******************************** Symmetrised Forces ********************************
 *                                                                                  *
 *                           Cartesian components (eV/A)                            *
 * -------------------------------------------------------------------------------- *
 *                         x                    y                    z              *
 *                                                                                  *
 * H               1      0.02668             -0.04599              0.00542         *
 * H               2     -0.02402              0.02572              0.03993         *
 * H               3      0.01435              0.02958             -0.05410         *
 * H               4     -0.01179             -0.09309              0.02047         *
 * H               5     -0.08714              0.01558             -0.09187         *
 * H               6     -0.01998             -0.00697              0.02345         *
 * H               7      0.03240              0.05656              0.03732         *
 * H               8     -0.02668              0.04599              0.00542         *
 * H               9      0.02668              0.04599             -0.00542         *
 * H              10     -0.02668             -0.04599             -0.00542         *
 * H              11      0.02402             -0.02572              0.03993         *
 * H              12     -0.02402             -0.02572             -0.03993         *
 * H              13      0.02402              0.02572             -0.03993         *
 * H              14     -0.01435             -0.02958             -0.05410         *
 * H              15      0.01435             -0.02958              0.05410         *
 * H              16     -0.01435              0.02958              0.05410         *
 * H              17      0.01179              0.09309              0.02047         *
 * H              18     -0.01179              0.09309             -0.02047         *
 * H              19      0.01179             -0.09309             -0.02047         *
 * H              20      0.08714             -0.01558             -0.09187         *
 * H              21     -0.08714             -0.01558              0.09187         *
 * H              22      0.08714              0.01558              0.09187         *
 * H              23      0.01998              0.00697              0.02345         *
 * H              24     -0.01998              0.00697             -0.02345         *
 * H              25      0.01998             -0.00697             -0.02345         *
 * H              26     -0.03240             -0.05656              0.03732         *
 * H              27      0.03240             -0.05656             -0.03732         *
 * H              28     -0.03240              0.05656             -0.03732         *
 * C               1      0.03154              0.00699              0.01475         *
 * C               2     -0.04229              0.01592             -0.09037         *
 * C               3      0.01229              0.07869              0.02968         *
 * C               4     -0.03154             -0.00699              0.01475         *
 * C               5      0.03154             -0.00699             -0.01475         *
 * C               6     -0.03154              0.00699             -0.01475         *
 * C               7      0.04229             -0.01592             -0.09037         *
 * C               8     -0.04229             -0.01592              0.09037         *
 * C               9      0.04229              0.01592              0.09037         *
 * C              10     -0.01229             -0.07869              0.02968         *
 * C              11      0.01229             -0.07869             -0.02968         *
 * C              12     -0.01229              0.07869             -0.02968         *
 * N               1      0.01808             -0.04929              0.02849         *
 * N               2     -0.01808              0.04929              0.02849         *
 * N               3      0.01808              0.04929             -0.02849         *
 * N               4     -0.01808             -0.04929             -0.02849         *
 * O               1     -0.01324             -0.03640             -0.00633         *
 * O               2      0.03977             -0.00466              0.01878         *
 * O               3      0.01324              0.03640             -0.00633         *
 * O               4     -0.01324              0.03640              0.00633         *
 * O               5      0.01324             -0.03640              0.00633         *
 * O               6     -0.03977              0.00466              0.01878         *
 * O               7      0.03977              0.00466             -0.01878         *
 * O               8     -0.03977             -0.00466             -0.01878         *
 *                                                                                  *
 ************************************************************************************
  
 +------------+-------------+-------------+-----------------+ <-- min LBFGS
 |    Step    |   lambda    |   F.delta'  |    enthalpy     | <-- min LBFGS
 +------------+-------------+-------------+-----------------+ <-- min LBFGS
 |  previous  |    0.000000 |    0.431407 |    -6966.992104 | <-- min LBFGS
 | trial step |    1.000000 |    0.051915 |    -6967.014243 | <-- min LBFGS
 +------------+-------------+-------------+-----------------+ <-- min LBFGS
  
 LBFGS: finished iteration     1 with enthalpy= -6.96701424E+003 eV
  
 +-----------+-----------------+-----------------+------------+-----+ <-- LBFGS
 | Parameter |      value      |    tolerance    |    units   | OK? | <-- LBFGS
 +-----------+-----------------+-----------------+------------+-----+ <-- LBFGS
 |  dE/ion   |   4.257524E-004 |   2.000000E-005 |         eV | No  | <-- LBFGS
 |  |F|max   |   1.275761E-001 |   5.000000E-002 |       eV/A | No  | <-- LBFGS
 |  |dR|max  |   5.406605E-003 |   1.000000E-003 |          A | No  | <-- LBFGS
 +-----------+-----------------+-----------------+------------+-----+ <-- LBFGS
  

================================================================================
 Starting LBFGS iteration          2 ...
================================================================================
  
 +------------+-------------+-------------+-----------------+ <-- min LBFGS
 |    Step    |   lambda    |   F.delta'  |    enthalpy     | <-- min LBFGS
 +------------+-------------+-------------+-----------------+ <-- min LBFGS
 |  previous  |    0.000000 |    0.126698 |    -6967.014243 | <-- min LBFGS
 +------------+-------------+-------------+-----------------+ <-- min LBFGS
  

--------------------------------------------------------------------------------
 LBFGS: starting iteration         2 with trial guess (lambda=  1.000000)
--------------------------------------------------------------------------------

                           -------------------------------
                                     Cell Contents
                           -------------------------------

            xxxxxxxxxxxxxxxxxxxxxxxxxxxxxxxxxxxxxxxxxxxxxxxxxxxxxxxxxxxxxxxxx
            x  Element         Atom        Fractional coordinates of atoms  x
            x                 Number           u          v          w      x
            x---------------------------------------------------------------x
            x  H                 1         0.689500   0.996531   0.688822   x
            x  H                 2         0.868671   0.896086   0.564398   x
            x  H                 3         0.802277   0.890340   0.864329   x
            x  H                 4         0.294987   0.939676   0.806355   x
            x  H                 5         0.420738   0.846315   0.984564   x
            x  H                 6         0.576639   0.751996   0.654471   x
            x  H                 7         0.221251   0.804391   0.789411   x
            x  H                 8         0.810500   0.003469   0.188822   x
            x  H                 9         0.189500   0.503469   0.311178   x
            x  H                10         0.310500   0.496531   0.811178   x
            x  H                11         0.631329   0.103914   0.064398   x
            x  H                12         0.368671   0.603914   0.435602   x
            x  H                13         0.131329   0.396086   0.935602   x
            x  H                14         0.697723   0.109660   0.364329   x
            x  H                15         0.302277   0.609660   0.135671   x
            x  H                16         0.197723   0.390340   0.635671   x
            x  H                17         0.205013   0.060324   0.306355   x
            x  H                18         0.794987   0.560324   0.193645   x
            x  H                19         0.705013   0.439676   0.693645   x
            x  H                20         0.079262   0.153685   0.484564   x
            x  H                21         0.920738   0.653685   0.015436   x
            x  H                22         0.579262   0.346315   0.515436   x
            x  H                23         0.923361   0.248004   0.154471   x
            x  H                24         0.076639   0.748004   0.345529   x
            x  H                25         0.423361   0.251996   0.845529   x
            x  H                26         0.278749   0.195609   0.289411   x
            x  H                27         0.721251   0.695609   0.210589   x
            x  H                28         0.778749   0.304391   0.710589   x
            x  C                 1         0.735868   0.909887   0.692431   x
            x  C                 2         0.440658   0.860159   0.397437   x
            x  C                 3         0.531562   0.838635   0.641390   x
            x  C                 4         0.764132   0.090113   0.192431   x
            x  C                 5         0.235868   0.590113   0.307569   x
            x  C                 6         0.264132   0.409887   0.807569   x
            x  C                 7         0.059342   0.139841   0.897437   x
            x  C                 8         0.940658   0.639841   0.602563   x
            x  C                 9         0.559342   0.360159   0.102563   x
            x  C                10         0.968438   0.161365   0.141390   x
            x  C                11         0.031562   0.661365   0.358610   x
            x  C                12         0.468438   0.338635   0.858610   x
            x  N                 1         0.353093   0.859486   0.816185   x
            x  N                 2         0.146907   0.140514   0.316185   x
            x  N                 3         0.853093   0.640514   0.183815   x
            x  N                 4         0.646907   0.359486   0.683815   x
            x  O                 1         0.270694   0.920047   0.375411   x
            x  O                 2         0.548515   0.814784   0.232362   x
            x  O                 3         0.229306   0.079953   0.875411   x
            x  O                 4         0.770694   0.579953   0.624589   x
            x  O                 5         0.729306   0.420047   0.124589   x
            x  O                 6         0.951485   0.185216   0.732362   x
            x  O                 7         0.048515   0.685216   0.767638   x
            x  O                 8         0.451485   0.314784   0.267638   x
            xxxxxxxxxxxxxxxxxxxxxxxxxxxxxxxxxxxxxxxxxxxxxxxxxxxxxxxxxxxxxxxxx


------------------------------------------------------------------------ <-- SCF
SCF loop      Energy                           Energy gain       Timer   <-- SCF
                                               per atom          (sec)   <-- SCF
------------------------------------------------------------------------ <-- SCF
Initial  -6.96699921E+003                                        291.52  <-- SCF
      1  -6.96701743E+003                    3.50454993E-004     408.57  <-- SCF
      2  -6.96701745E+003                    2.99979168E-007     482.24  <-- SCF
      3  -6.96701745E+003                    4.04981875E-009     532.81  <-- SCF
------------------------------------------------------------------------ <-- SCF
 
Final energy =  -6967.017447889     eV
(energy not corrected for finite basis set)
 

 ******************************** Symmetrised Forces ********************************
 *                                                                                  *
 *                           Cartesian components (eV/A)                            *
 * -------------------------------------------------------------------------------- *
 *                         x                    y                    z              *
 *                                                                                  *
 * H               1      0.02148             -0.00843              0.00629         *
 * H               2      0.00653              0.01769              0.01020         *
 * H               3      0.03310              0.01942             -0.00895         *
 * H               4     -0.02230             -0.05804              0.02132         *
 * H               5     -0.05501              0.00108             -0.02296         *
 * H               6     -0.01922              0.00799              0.01961         *
 * H               7     -0.00617              0.01297              0.02605         *
 * H               8     -0.02148              0.00843              0.00629         *
 * H               9      0.02148              0.00843             -0.00629         *
 * H              10     -0.02148             -0.00843             -0.00629         *
 * H              11     -0.00653             -0.01769              0.01020         *
 * H              12      0.00653             -0.01769             -0.01020         *
 * H              13     -0.00653              0.01769             -0.01020         *
 * H              14     -0.03310             -0.01942             -0.00895         *
 * H              15      0.03310             -0.01942              0.00895         *
 * H              16     -0.03310              0.01942              0.00895         *
 * H              17      0.02230              0.05804              0.02132         *
 * H              18     -0.02230              0.05804             -0.02132         *
 * H              19      0.02230             -0.05804             -0.02132         *
 * H              20      0.05501             -0.00108             -0.02296         *
 * H              21     -0.05501             -0.00108              0.02296         *
 * H              22      0.05501              0.00108              0.02296         *
 * H              23      0.01922             -0.00799              0.01961         *
 * H              24     -0.01922             -0.00799             -0.01961         *
 * H              25      0.01922              0.00799             -0.01961         *
 * H              26      0.00617             -0.01297              0.02605         *
 * H              27     -0.00617             -0.01297             -0.02605         *
 * H              28      0.00617              0.01297             -0.02605         *
 * C               1     -0.02408             -0.01005              0.00084         *
 * C               2      0.01026             -0.01073             -0.02129         *
 * C               3      0.00459              0.04771              0.00423         *
 * C               4      0.02408              0.01005              0.00084         *
 * C               5     -0.02408              0.01005             -0.00084         *
 * C               6      0.02408             -0.01005             -0.00084         *
 * C               7     -0.01026              0.01073             -0.02129         *
 * C               8      0.01026              0.01073              0.02129         *
 * C               9     -0.01026             -0.01073              0.02129         *
 * C              10     -0.00459             -0.04771              0.00423         *
 * C              11      0.00459             -0.04771             -0.00423         *
 * C              12     -0.00459              0.04771             -0.00423         *
 * N               1      0.04077             -0.00786             -0.04481         *
 * N               2     -0.04077              0.00786             -0.04481         *
 * N               3      0.04077              0.00786              0.04481         *
 * N               4     -0.04077             -0.00786              0.04481         *
 * O               1     -0.04345             -0.01559             -0.02534         *
 * O               2      0.02997              0.00141              0.01061         *
 * O               3      0.04345              0.01559             -0.02534         *
 * O               4     -0.04345              0.01559              0.02534         *
 * O               5      0.04345             -0.01559              0.02534         *
 * O               6     -0.02997             -0.00141              0.01061         *
 * O               7      0.02997             -0.00141             -0.01061         *
 * O               8     -0.02997              0.00141             -0.01061         *
 *                                                                                  *
 ************************************************************************************
  
 +------------+-------------+-------------+-----------------+ <-- min LBFGS
 |    Step    |   lambda    |   F.delta'  |    enthalpy     | <-- min LBFGS
 +------------+-------------+-------------+-----------------+ <-- min LBFGS
 |  previous  |    0.000000 |    0.126698 |    -6967.014243 | <-- min LBFGS
 | trial step |    1.000000 |    0.042683 |    -6967.017448 | <-- min LBFGS
 +------------+-------------+-------------+-----------------+ <-- min LBFGS
  

--------------------------------------------------------------------------------
 LBFGS: improving iteration         2 with line minimization (lambda=  1.508048)
--------------------------------------------------------------------------------

                           -------------------------------
                                     Cell Contents
                           -------------------------------

            xxxxxxxxxxxxxxxxxxxxxxxxxxxxxxxxxxxxxxxxxxxxxxxxxxxxxxxxxxxxxxxxx
            x  Element         Atom        Fractional coordinates of atoms  x
            x                 Number           u          v          w      x
            x---------------------------------------------------------------x
            x  H                 1         0.689542   0.996492   0.688831   x
            x  H                 2         0.868622   0.896105   0.564469   x
            x  H                 3         0.802292   0.890362   0.864234   x
            x  H                 4         0.294977   0.939600   0.806386   x
            x  H                 5         0.420605   0.846327   0.984408   x
            x  H                 6         0.576604   0.752003   0.654504   x
            x  H                 7         0.221316   0.804437   0.789468   x
            x  H                 8         0.810458   0.003508   0.188831   x
            x  H                 9         0.189542   0.503508   0.311169   x
            x  H                10         0.310458   0.496492   0.811169   x
            x  H                11         0.631378   0.103895   0.064469   x
            x  H                12         0.368622   0.603895   0.435531   x
            x  H                13         0.131378   0.396105   0.935531   x
            x  H                14         0.697708   0.109638   0.364234   x
            x  H                15         0.302292   0.609638   0.135766   x
            x  H                16         0.197708   0.390362   0.635766   x
            x  H                17         0.205023   0.060400   0.306386   x
            x  H                18         0.794977   0.560400   0.193614   x
            x  H                19         0.705023   0.439600   0.693614   x
            x  H                20         0.079395   0.153673   0.484408   x
            x  H                21         0.920605   0.653673   0.015592   x
            x  H                22         0.579395   0.346327   0.515592   x
            x  H                23         0.923396   0.247997   0.154504   x
            x  H                24         0.076604   0.747997   0.345496   x
            x  H                25         0.423396   0.252003   0.845496   x
            x  H                26         0.278684   0.195563   0.289468   x
            x  H                27         0.721316   0.695563   0.210532   x
            x  H                28         0.778684   0.304437   0.710532   x
            x  C                 1         0.735943   0.909901   0.692459   x
            x  C                 2         0.440602   0.860171   0.397311   x
            x  C                 3         0.531594   0.838670   0.641424   x
            x  C                 4         0.764057   0.090099   0.192459   x
            x  C                 5         0.235943   0.590099   0.307541   x
            x  C                 6         0.264057   0.409901   0.807541   x
            x  C                 7         0.059398   0.139829   0.897311   x
            x  C                 8         0.940602   0.639829   0.602689   x
            x  C                 9         0.559398   0.360171   0.102689   x
            x  C                10         0.968406   0.161330   0.141424   x
            x  C                11         0.031594   0.661330   0.358576   x
            x  C                12         0.468406   0.338670   0.858576   x
            x  N                 1         0.353084   0.859456   0.816259   x
            x  N                 2         0.146916   0.140544   0.316259   x
            x  N                 3         0.853084   0.640544   0.183741   x
            x  N                 4         0.646916   0.359456   0.683741   x
            x  O                 1         0.270655   0.920027   0.375398   x
            x  O                 2         0.548583   0.814776   0.232376   x
            x  O                 3         0.229345   0.079973   0.875398   x
            x  O                 4         0.770655   0.579973   0.624602   x
            x  O                 5         0.729345   0.420027   0.124602   x
            x  O                 6         0.951417   0.185224   0.732376   x
            x  O                 7         0.048583   0.685224   0.767624   x
            x  O                 8         0.451417   0.314776   0.267624   x
            xxxxxxxxxxxxxxxxxxxxxxxxxxxxxxxxxxxxxxxxxxxxxxxxxxxxxxxxxxxxxxxxx


------------------------------------------------------------------------ <-- SCF
SCF loop      Energy                           Energy gain       Timer   <-- SCF
                                               per atom          (sec)   <-- SCF
------------------------------------------------------------------------ <-- SCF
Initial  -6.96701315E+003                                        560.94  <-- SCF
      1  -6.96701785E+003                    9.05090089E-005     608.83  <-- SCF
      2  -6.96701786E+003                    7.84006264E-008     657.66  <-- SCF
      3  -6.96701786E+003                    1.13706781E-009     706.36  <-- SCF
------------------------------------------------------------------------ <-- SCF
 
Final energy =  -6967.017856179     eV
(energy not corrected for finite basis set)
 

 ******************************** Symmetrised Forces ********************************
 *                                                                                  *
 *                           Cartesian components (eV/A)                            *
 * -------------------------------------------------------------------------------- *
 *                         x                    y                    z              *
 *                                                                                  *
 * H               1      0.01881              0.01076              0.00673         *
 * H               2      0.02214              0.01358             -0.00502         *
 * H               3      0.04272              0.01422              0.01416         *
 * H               4     -0.02769             -0.04012              0.02174         *
 * H               5     -0.03843             -0.00638              0.01276         *
 * H               6     -0.01882              0.01552              0.01764         *
 * H               7     -0.02598             -0.00934              0.02025         *
 * H               8     -0.01881             -0.01076              0.00673         *
 * H               9      0.01881             -0.01076             -0.00673         *
 * H              10     -0.01881              0.01076             -0.00673         *
 * H              11     -0.02214             -0.01358             -0.00502         *
 * H              12      0.02214             -0.01358              0.00502         *
 * H              13     -0.02214              0.01358              0.00502         *
 * H              14     -0.04272             -0.01422              0.01416         *
 * H              15      0.04272             -0.01422             -0.01416         *
 * H              16     -0.04272              0.01422             -0.01416         *
 * H              17      0.02769              0.04012              0.02174         *
 * H              18     -0.02769              0.04012             -0.02174         *
 * H              19      0.02769             -0.04012             -0.02174         *
 * H              20      0.03843              0.00638              0.01276         *
 * H              21     -0.03843              0.00638             -0.01276         *
 * H              22      0.03843             -0.00638             -0.01276         *
 * H              23      0.01882             -0.01552              0.01764         *
 * H              24     -0.01882             -0.01552             -0.01764         *
 * H              25      0.01882              0.01552             -0.01764         *
 * H              26      0.02598              0.00934              0.02025         *
 * H              27     -0.02598              0.00934             -0.02025         *
 * H              28      0.02598             -0.00934             -0.02025         *
 * C               1     -0.05242             -0.01874             -0.00628         *
 * C               2      0.03696             -0.02417              0.01347         *
 * C               3      0.00076              0.03208             -0.00849         *
 * C               4      0.05242              0.01874             -0.00628         *
 * C               5     -0.05242              0.01874              0.00628         *
 * C               6      0.05242             -0.01874              0.00628         *
 * C               7     -0.03696              0.02417              0.01347         *
 * C               8      0.03696              0.02417             -0.01347         *
 * C               9     -0.03696             -0.02417             -0.01347         *
 * C              10     -0.00076             -0.03208             -0.00849         *
 * C              11      0.00076             -0.03208              0.00849         *
 * C              12     -0.00076              0.03208              0.00849         *
 * N               1      0.05256              0.01318             -0.08281         *
 * N               2     -0.05256             -0.01318             -0.08281         *
 * N               3      0.05256             -0.01318              0.08281         *
 * N               4     -0.05256              0.01318              0.08281         *
 * O               1     -0.05875             -0.00520             -0.03499         *
 * O               2      0.02489              0.00449              0.00670         *
 * O               3      0.05875              0.00520             -0.03499         *
 * O               4     -0.05875              0.00520              0.03499         *
 * O               5      0.05875             -0.00520              0.03499         *
 * O               6     -0.02489             -0.00449              0.00670         *
 * O               7      0.02489             -0.00449             -0.00670         *
 * O               8     -0.02489              0.00449             -0.00670         *
 *                                                                                  *
 ************************************************************************************
  
 +------------+-------------+-------------+-----------------+ <-- min LBFGS
 |    Step    |   lambda    |   F.delta'  |    enthalpy     | <-- min LBFGS
 +------------+-------------+-------------+-----------------+ <-- min LBFGS
 |  previous  |    0.000000 |    0.126698 |    -6967.014243 | <-- min LBFGS
 | trial step |    1.000000 |    0.042683 |    -6967.017448 | <-- min LBFGS
 |  line step |    1.508048 |   -0.000300 |    -6967.017856 | <-- min LBFGS
 +------------+-------------+-------------+-----------------+ <-- min LBFGS
  
 LBFGS: finished iteration     2 with enthalpy= -6.96701786E+003 eV
  
 +-----------+-----------------+-----------------+------------+-----+ <-- LBFGS
 | Parameter |      value      |    tolerance    |    units   | OK? | <-- LBFGS
 +-----------+-----------------+-----------------+------------+-----+ <-- LBFGS
 |  dE/ion   |   6.948591E-005 |   2.000000E-005 |         eV | No  | <-- LBFGS
 |  |F|max   |   9.896174E-002 |   5.000000E-002 |       eV/A | No  | <-- LBFGS
 |  |dR|max  |   3.583150E-003 |   1.000000E-003 |          A | No  | <-- LBFGS
 +-----------+-----------------+-----------------+------------+-----+ <-- LBFGS
  

================================================================================
 Starting LBFGS iteration          3 ...
================================================================================
  
 +------------+-------------+-------------+-----------------+ <-- min LBFGS
 |    Step    |   lambda    |   F.delta'  |    enthalpy     | <-- min LBFGS
 +------------+-------------+-------------+-----------------+ <-- min LBFGS
 |  previous  |    0.000000 |    0.073710 |    -6967.017856 | <-- min LBFGS
 +------------+-------------+-------------+-----------------+ <-- min LBFGS
  

--------------------------------------------------------------------------------
 LBFGS: starting iteration         3 with trial guess (lambda=  1.000000)
--------------------------------------------------------------------------------

                           -------------------------------
                                     Cell Contents
                           -------------------------------

            xxxxxxxxxxxxxxxxxxxxxxxxxxxxxxxxxxxxxxxxxxxxxxxxxxxxxxxxxxxxxxxxx
            x  Element         Atom        Fractional coordinates of atoms  x
            x                 Number           u          v          w      x
            x---------------------------------------------------------------x
            x  H                 1         0.689613   0.996479   0.688852   x
            x  H                 2         0.868642   0.896132   0.564502   x
            x  H                 3         0.802399   0.890392   0.864207   x
            x  H                 4         0.294908   0.939506   0.806458   x
            x  H                 5         0.420435   0.846327   0.984340   x
            x  H                 6         0.576536   0.752027   0.654566   x
            x  H                 7         0.221298   0.804455   0.789551   x
            x  H                 8         0.810387   0.003521   0.188852   x
            x  H                 9         0.189613   0.503521   0.311148   x
            x  H                10         0.310387   0.496479   0.811148   x
            x  H                11         0.631358   0.103868   0.064502   x
            x  H                12         0.368642   0.603868   0.435498   x
            x  H                13         0.131358   0.396132   0.935498   x
            x  H                14         0.697601   0.109608   0.364207   x
            x  H                15         0.302399   0.609608   0.135793   x
            x  H                16         0.197601   0.390392   0.635793   x
            x  H                17         0.205092   0.060494   0.306458   x
            x  H                18         0.794908   0.560494   0.193542   x
            x  H                19         0.705092   0.439506   0.693542   x
            x  H                20         0.079565   0.153673   0.484340   x
            x  H                21         0.920435   0.653673   0.015660   x
            x  H                22         0.579565   0.346327   0.515660   x
            x  H                23         0.923464   0.247973   0.154566   x
            x  H                24         0.076536   0.747973   0.345434   x
            x  H                25         0.423464   0.252027   0.845434   x
            x  H                26         0.278702   0.195545   0.289551   x
            x  H                27         0.721298   0.695545   0.210449   x
            x  H                28         0.778702   0.304455   0.710449   x
            x  C                 1         0.735872   0.909892   0.692463   x
            x  C                 2         0.440657   0.860150   0.397271   x
            x  C                 3         0.531619   0.838721   0.641421   x
            x  C                 4         0.764128   0.090108   0.192463   x
            x  C                 5         0.235872   0.590108   0.307537   x
            x  C                 6         0.264128   0.409892   0.807537   x
            x  C                 7         0.059343   0.139850   0.897271   x
            x  C                 8         0.940657   0.639850   0.602729   x
            x  C                 9         0.559343   0.360150   0.102729   x
            x  C                10         0.968381   0.161279   0.141421   x
            x  C                11         0.031619   0.661279   0.358579   x
            x  C                12         0.468381   0.338721   0.858579   x
            x  N                 1         0.353192   0.859455   0.816113   x
            x  N                 2         0.146808   0.140545   0.316113   x
            x  N                 3         0.853192   0.640545   0.183887   x
            x  N                 4         0.646808   0.359455   0.683887   x
            x  O                 1         0.270489   0.920011   0.375305   x
            x  O                 2         0.548684   0.814775   0.232398   x
            x  O                 3         0.229511   0.079989   0.875305   x
            x  O                 4         0.770489   0.579989   0.624695   x
            x  O                 5         0.729511   0.420011   0.124695   x
            x  O                 6         0.951316   0.185225   0.732398   x
            x  O                 7         0.048684   0.685225   0.767602   x
            x  O                 8         0.451316   0.314775   0.267602   x
            xxxxxxxxxxxxxxxxxxxxxxxxxxxxxxxxxxxxxxxxxxxxxxxxxxxxxxxxxxxxxxxxx


------------------------------------------------------------------------ <-- SCF
SCF loop      Energy                           Energy gain       Timer   <-- SCF
                                               per atom          (sec)   <-- SCF
------------------------------------------------------------------------ <-- SCF
Initial  -6.96700577E+003                                        731.43  <-- SCF
      1  -6.96701913E+003                    2.56961902E-004     796.20  <-- SCF
      2  -6.96701914E+003                    2.01479933E-007     880.90  <-- SCF
      3  -6.96701914E+003                    3.71571249E-009     949.00  <-- SCF
------------------------------------------------------------------------ <-- SCF
 
Final energy =  -6967.019142007     eV
(energy not corrected for finite basis set)
 

 ******************************** Symmetrised Forces ********************************
 *                                                                                  *
 *                           Cartesian components (eV/A)                            *
 * -------------------------------------------------------------------------------- *
 *                         x                    y                    z              *
 *                                                                                  *
 * H               1      0.01407              0.01857              0.00661         *
 * H               2      0.01618              0.01240             -0.00373         *
 * H               3      0.03680              0.01190              0.01274         *
 * H               4     -0.03075             -0.00957              0.01486         *
 * H               5     -0.02662             -0.00616              0.01153         *
 * H               6     -0.01605              0.02039              0.01376         *
 * H               7     -0.01566             -0.00907              0.01079         *
 * H               8     -0.01407             -0.01857              0.00661         *
 * H               9      0.01407             -0.01857             -0.00661         *
 * H              10     -0.01407              0.01857             -0.00661         *
 * H              11     -0.01618             -0.01240             -0.00373         *
 * H              12      0.01618             -0.01240              0.00373         *
 * H              13     -0.01618              0.01240              0.00373         *
 * H              14     -0.03680             -0.01190              0.01274         *
 * H              15      0.03680             -0.01190             -0.01274         *
[...]
              H 11 -- H 26                  -0.04        2.11137
              H 13 -- H 28                  -0.04        2.11137
              H 1  -- H 14                  -0.04        2.11461
              H 9  -- H 16                  -0.04        2.11461
              H 3  -- H 8                   -0.04        2.11461
              H 10 -- H 15                  -0.04        2.11461
              H 23 -- O 5                    0.00        2.12767
              H 24 -- O 1                    0.00        2.12767
              H 6  -- O 4                    0.00        2.12767
              H 25 -- O 3                    0.00        2.12767
              H 15 -- C 11                  -0.13        2.14471
              H 3  -- C 3                   -0.13        2.14471
              H 14 -- C 10                  -0.13        2.14471
              H 16 -- C 12                  -0.13        2.14471
              H 9  -- C 11                  -0.14        2.14517
              H 1  -- C 3                   -0.14        2.14517
              H 8  -- C 10                  -0.14        2.14517
              H 10 -- C 12                  -0.14        2.14517
              H 2  -- C 3                   -0.12        2.16080
              H 11 -- C 10                  -0.12        2.16080
              H 12 -- C 11                  -0.12        2.16080
              H 13 -- C 12                  -0.12        2.16080
              H 14 -- H 26                  -0.03        2.16807
              H 16 -- H 28                  -0.03        2.16807
              H 3  -- H 7                   -0.03        2.16807
              H 15 -- H 27                  -0.03        2.16807
              H 25 -- C 6                   -0.12        2.17357
              H 24 -- C 5                   -0.12        2.17357
              H 6  -- C 1                   -0.12        2.17357
              H 23 -- C 4                   -0.12        2.17357
              H 5  -- C 2                   -0.07        2.19366
              H 22 -- C 9                   -0.07        2.19366
              H 20 -- C 7                   -0.07        2.19366
              H 21 -- C 8                   -0.07        2.19366
              H 22 -- H 23                  -0.03        2.20577
              H 6  -- H 21                  -0.03        2.20577
              H 5  -- H 24                  -0.03        2.20577
              H 20 -- H 25                  -0.03        2.20577
               O 4 -- O 7                   -0.20        2.22779
               O 1 -- O 2                   -0.20        2.22779
               O 5 -- O 8                   -0.20        2.22779
               O 3 -- O 6                   -0.20        2.22779
              H 1  -- O 6                   -0.01        2.22923
              H 10 -- O 7                   -0.01        2.22923
              H 8  -- O 2                   -0.01        2.22923
              H 9  -- O 8                   -0.01        2.22923
              H 21 -- O 4                   -0.02        2.28887
              H 5  -- O 1                   -0.02        2.28887
              H 22 -- O 5                   -0.02        2.28887
              H 20 -- O 3                   -0.02        2.28887
              H 22 -- H 26                  -0.02        2.28915
              H 20 -- H 28                  -0.02        2.28915
              H 5  -- H 27                  -0.02        2.28915
              H 7  -- H 21                  -0.02        2.28915
              H 25 -- H 28                  -0.04        2.32529
              H 24 -- H 27                  -0.04        2.32529
              H 6  -- H 7                   -0.04        2.32529
              H 23 -- H 26                  -0.04        2.32529
              C 3  -- O 2                   -0.21        2.35355
              C 12 -- O 8                   -0.21        2.35355
              C 10 -- O 6                   -0.21        2.35355
              C 11 -- O 7                   -0.21        2.35355
              H 1  -- H 11                  -0.02        2.36103
              H 9  -- H 13                  -0.02        2.36103
              H 10 -- H 12                  -0.02        2.36103
              H 2  -- H 8                   -0.02        2.36103
              H 22 -- H 25                  -0.03        2.37278
              H 21 -- H 24                  -0.03        2.37278
              H 5  -- H 6                   -0.03        2.37278
              H 20 -- H 23                  -0.03        2.37278
              H 7  -- H 24                  -0.02        2.38256
              H 6  -- H 27                  -0.02        2.38256
              H 25 -- H 26                  -0.02        2.38256
              H 23 -- H 28                  -0.02        2.38256
              C 11 -- O 4                   -0.20        2.39257
              C 12 -- O 5                   -0.20        2.39257
              C 10 -- O 3                   -0.20        2.39257
              C 3  -- O 1                   -0.20        2.39257
              H 8  -- H 17                  -0.01        2.40914
              H 1  -- H 4                   -0.01        2.40914
              H 10 -- H 19                  -0.01        2.40914
              H 9  -- H 18                  -0.01        2.40914
              H 3  -- H 5                   -0.01        2.41339
              H 14 -- H 20                  -0.01        2.41339
              H 15 -- H 21                  -0.01        2.41339
              H 16 -- H 22                  -0.01        2.41339
              C 6  -- N 4                   -0.18        2.42243
              C 5  -- N 3                   -0.18        2.42243
              C 4  -- N 2                   -0.18        2.42243
              C 1  -- N 1                   -0.18        2.42243
              C 8  -- N 3                   -0.17        2.42563
              C 7  -- N 2                   -0.17        2.42563
              C 2  -- N 1                   -0.17        2.42563
              C 9  -- N 4                   -0.17        2.42563
              H 13 -- H 19                  -0.01        2.43694
              H 12 -- H 18                  -0.01        2.43694
              H 11 -- H 17                  -0.01        2.43694
              H 2  -- H 4                   -0.01        2.43694
              H 14 -- O 6                   -0.00        2.45941
              H 15 -- O 7                   -0.00        2.45941
              H 3  -- O 2                   -0.00        2.45941
              H 16 -- O 8                   -0.00        2.45941
              H 16 -- H 19                  -0.02        2.47208
              H 15 -- H 18                  -0.02        2.47208
              H 14 -- H 17                  -0.02        2.47208
              H 3  -- H 4                   -0.02        2.47208
              H 23 -- C 9                   -0.05        2.48588
              H 25 -- C 7                   -0.05        2.48588
              H 6  -- C 8                   -0.05        2.48588
              H 24 -- C 2                   -0.05        2.48588
              H 15 -- H 24                  -0.04        2.49082
              H 16 -- H 25                  -0.04        2.49082
              H 3  -- H 6                   -0.04        2.49082
              H 14 -- H 23                  -0.04        2.49082
              C 5  -- C 8                   -0.15        2.49151
              C 6  -- C 9                   -0.15        2.49151
              C 1  -- C 2                   -0.15        2.49151
              C 4  -- C 7                   -0.15        2.49151
              H 8  -- C 2                   -0.05        2.52035
              H 10 -- C 8                   -0.05        2.52035
              H 1  -- C 7                   -0.05        2.52035
              H 9  -- C 9                   -0.05        2.52035
              H 6  -- O 2                   -0.02        2.53410
              H 25 -- O 8                   -0.02        2.53410
              H 23 -- O 6                   -0.02        2.53410
              H 24 -- O 7                   -0.02        2.53410
              H 7  -- C 1                   -0.00        2.55786
              H 26 -- C 4                   -0.00        2.55786
              H 28 -- C 6                   -0.00        2.55786
              H 27 -- C 5                   -0.00        2.55786
              H 28 -- C 9                   -0.04        2.56031
              H 26 -- C 7                   -0.04        2.56031
              H 7  -- C 2                   -0.04        2.56031
              H 27 -- C 8                   -0.04        2.56031
              H 12 -- H 24                  -0.02        2.56162
              H 2  -- H 6                   -0.02        2.56162
              H 13 -- H 25                  -0.02        2.56162
              H 11 -- H 23                  -0.02        2.56162
              H 19 -- C 8                   -0.05        2.57736
              H 18 -- C 9                   -0.05        2.57736
              H 17 -- C 2                   -0.05        2.57736
              H 4  -- C 7                   -0.05        2.57736
              H 7  -- O 1                   -0.00        2.58033
              H 28 -- O 5                   -0.00        2.58033
              H 26 -- O 3                   -0.00        2.58033
              H 27 -- O 4                   -0.00        2.58033
              H 16 -- H 23                  -0.01        2.58478
              H 3  -- H 24                  -0.01        2.58478
              H 14 -- H 25                  -0.01        2.58478
              H 6  -- H 15                  -0.01        2.58478
              H 17 -- O 3                    0.00        2.58593
              H 18 -- O 4                    0.00        2.58593
              H 19 -- O 5                    0.00        2.58593
              H 4  -- O 1                    0.00        2.58593
              H 21 -- C 5                   -0.04        2.60113
              H 5  -- C 1                   -0.04        2.60113
              H 20 -- C 4                   -0.04        2.60113
              H 22 -- C 6                   -0.04        2.60113
              H 16 -- H 26                  -0.01        2.60642
              H 3  -- H 27                  -0.01        2.60642
              H 14 -- H 28                  -0.01        2.60642
              H 7  -- H 15                  -0.01        2.60642
              H 4  -- H 11                  -0.02        2.60913
              H 13 -- H 18                  -0.02        2.60913
              H 2  -- H 17                  -0.02        2.60913
              H 12 -- H 19                  -0.02        2.60913
              H 11 -- O 8                   -0.01        2.62452
              H 2  -- O 7                   -0.01        2.62452
              H 12 -- O 2                   -0.01        2.62452
              H 13 -- O 6                   -0.01        2.62452
              H 8  -- N 2                   -0.03        2.63435
              H 10 -- N 4                   -0.03        2.63435
              H 9  -- N 3                   -0.03        2.63435
              H 1  -- N 1                   -0.03        2.63435
               N 4 -- O 4                   -0.14        2.63513
               N 2 -- O 1                   -0.14        2.63513
               N 3 -- O 5                   -0.14        2.63513
               N 1 -- O 3                   -0.14        2.63513
               N 4 -- O 6                   -0.12        2.63906
               N 2 -- O 8                   -0.12        2.63906
               N 1 -- O 7                   -0.12        2.63906
               N 3 -- O 2                   -0.12        2.63906
               N 3 -- O 7                   -0.14        2.64754
               N 2 -- O 6                   -0.14        2.64754
               N 4 -- O 8                   -0.14        2.64754
               N 1 -- O 2                   -0.14        2.64754
              H 17 -- C 4                   -0.06        2.65541
              H 4  -- C 1                   -0.06        2.65541
              H 18 -- C 5                   -0.06        2.65541
              H 19 -- C 6                   -0.06        2.65541
               N 3 -- O 4                   -0.05        2.65758
               N 2 -- O 3                   -0.05        2.65758
               N 4 -- O 5                   -0.05        2.65758
               N 1 -- O 1                   -0.05        2.65758
              H 24 -- N 1                   -0.03        2.66155
              H 23 -- N 4                   -0.03        2.66155
              H 6  -- N 3                   -0.03        2.66155
              H 25 -- N 2                   -0.03        2.66155
              H 2  -- N 1                   -0.01        2.66402
              H 13 -- N 4                   -0.01        2.66402
              H 12 -- N 3                   -0.01        2.66402
              H 11 -- N 2                   -0.01        2.66402
              H 16 -- N 4                   -0.05        2.68320
              H 3  -- N 1                   -0.05        2.68320
              H 14 -- N 2                   -0.05        2.68320
              H 15 -- N 3                   -0.05        2.68320
              H 14 -- H 22                  -0.00        2.70551
              H 16 -- H 20                  -0.00        2.70551
              H 3  -- H 21                  -0.00        2.70551
              H 5  -- H 15                  -0.00        2.70551
              H 12 -- C 8                   -0.05        2.70955
              H 2  -- C 2                   -0.05        2.70955
              H 13 -- C 9                   -0.05        2.70955
              H 11 -- C 7                   -0.05        2.70955
              H 17 -- C 7                   -0.04        2.71613
              H 4  -- C 2                   -0.04        2.71613
              H 18 -- C 8                   -0.04        2.71613
              H 19 -- C 9                   -0.04        2.71613
              H 23 -- O 8                   -0.02        2.72398
              H 6  -- O 7                   -0.02        2.72398
              H 25 -- O 6                   -0.02        2.72398
              H 24 -- O 2                   -0.02        2.72398
              H 2  -- O 2                    0.00        2.75430
              H 12 -- O 7                    0.00        2.75430
              H 11 -- O 6                    0.00        2.75430
              H 13 -- O 8                    0.00        2.75430
              H 1  -- H 8                   -0.01        2.78029
              H 9  -- H 10                  -0.01        2.78029
              H 10 -- O 4                   -0.01        2.78480
              H 8  -- O 1                   -0.01        2.78480
              H 1  -- O 3                   -0.01        2.78480
              H 9  -- O 5                   -0.01        2.78480
              H 1  -- H 20                  -0.01        2.78849
              H 5  -- H 8                   -0.01        2.78849
              H 10 -- H 21                  -0.01        2.78849
              H 9  -- H 22                  -0.01        2.78849
              H 9  -- C 8                   -0.03        2.79828
              H 1  -- C 2                   -0.03        2.79828
              H 10 -- C 9                   -0.03        2.79828
              H 8  -- C 7                   -0.03        2.79828
              H 13 -- H 23                  -0.01        2.83322
              H 6  -- H 12                  -0.01        2.83322
              H 2  -- H 24                  -0.01        2.83322
              H 11 -- H 25                  -0.01        2.83322
              H 28 -- C 7                   -0.02        2.85237
              H 7  -- C 8                   -0.02        2.85237
              H 26 -- C 9                   -0.02        2.85237
              H 27 -- C 2                   -0.02        2.85237
              H 3  -- C 4                   -0.03        2.86692
              H 14 -- C 1                   -0.03        2.86692
              H 16 -- C 5                   -0.03        2.86692
              H 15 -- C 6                   -0.03        2.86692
              H 8  -- C 1                   -0.06        2.88053
              H 10 -- C 5                   -0.06        2.88053
              H 1  -- C 4                   -0.06        2.88053
              H 9  -- C 6                   -0.06        2.88053
              H 13 -- H 15                  -0.00        2.90119
              H 3  -- H 11                  -0.00        2.90119
              H 2  -- H 14                  -0.00        2.90119
              H 12 -- H 16                  -0.00        2.90119
              H 9  -- H 21                  -0.00        2.91212
              H 8  -- H 20                  -0.00        2.91212
              H 1  -- H 5                   -0.00        2.91212
              H 10 -- H 22                  -0.00        2.91212
              H 27 -- C 3                   -0.02        2.94553
              H 26 -- C 12                  -0.02        2.94553
              H 28 -- C 10                  -0.02        2.94553
              H 7  -- C 11                  -0.02        2.94553
              C 12 -- O 6                   -0.02        2.95015
              C 11 -- O 2                   -0.02        2.95015
              C 10 -- O 8                   -0.02        2.95015
              C 3  -- O 7                   -0.02        2.95015
              H 3  -- N 3                   -0.01        2.97060
              H 15 -- N 1                   -0.01        2.97060
              H 16 -- N 2                   -0.01        2.97060
              H 14 -- N 4                   -0.01        2.97060
              C 7  -- O 8                   -0.00        2.97287
              C 9  -- O 6                   -0.00        2.97287
              C 8  -- O 2                   -0.00        2.97287
              C 2  -- O 7                   -0.00        2.97287
              H 19 -- H 25                   0.04        2.98830
              H 4  -- H 6                    0.04        2.98830
              H 18 -- H 24                   0.04        2.98830
              H 17 -- H 23                   0.04        2.98830
              H 2  -- C 8                   -0.01        2.99000
              H 12 -- C 2                   -0.01        2.99000
              H 13 -- C 7                   -0.01        2.99000
              H 11 -- C 9                   -0.01        2.99000
              H 18 -- H 19                  -0.01        2.99344
              H 4  -- H 17                  -0.01        2.99344
              H 13 -- H 21                  -0.00        2.99542
              H 5  -- H 11                  -0.00        2.99542
              H 2  -- H 20                  -0.00        2.99542
              H 12 -- H 22                  -0.00        2.99542
              H 27 -- N 1                   -0.01        2.99592
              H 7  -- N 3                   -0.01        2.99592
              H 28 -- N 2                   -0.01        2.99592
              H 26 -- N 4                   -0.01        2.99592
======================================================================


Writing analysis data to L-alanine_cif_278466-17O_opt.castep_bin

Writing model to L-alanine_cif_278466-17O_opt.check
 
 A BibTeX formatted list of references used in this run has been written to 
 L-alanine_cif_278466-17O_opt.bib
 
Initialisation time =     43.44 s
Calculation time    =  18982.03 s
Finalisation time   =      0.77 s
Total time          =  19026.25 s
Peak Memory Use     = 1104620 kB
 
Overall parallel efficiency rating: Mediocre (51%)
 
Data was distributed by:-
G-vector (5-way); efficiency rating: Mediocre (51%)
